 written on 25Nov2024 at 14:44:44 
   2.5102669204009289        0.0000000000000000        0.0000000000000000     
  -1.2551334602004645        2.1739539018422445        0.0000000000000000     
   0.0000000000000000        0.0000000000000000        14.999999580211844     
           6
          83
    1    1    2    1    1    1    1    1    1    2    1    1    1    1    1
    1    1    1    1    1    1    1    1    1    1    1    1    1    1    1
    1    1    1    1    1    1    1    1    1    1    1    1    1    1    1
    1    1    1    1    1    1    1    1    1    1    1    1    1    1    1
    1    1    1    1    1    1    1    1    1    1    1    1    1    2    1
    1    1    1    1    1    2    1    1

   -5   -3    0
    1    1   -0.30421717E-02  0.28351277E-04
    2    1    0.11936333E-03 -0.35152967E-04
    3    1    0.40956863E-03  0.36630092E-03
    4    1    0.11218906E-01  0.32542724E-02
    5    1   -0.17276696E-03 -0.30446239E-04
    6    1    0.18653815E-04  0.35166744E-04
    1    2   -0.49172552E-05  0.75697323E-04
    2    2    0.11452914E-02 -0.32663965E-03
    3    2    0.17055367E-01  0.70154255E-02
    4    2   -0.65794819E-04 -0.21902463E-04
    5    2   -0.16243298E-02  0.55907244E-03
    6    2   -0.78249903E-03 -0.82262878E-03
    1    3    0.19695837E-04 -0.20763127E-04
    2    3   -0.19328497E-01 -0.76249157E-02
    3    3    0.88064369E-02 -0.18105066E-03
    4    3    0.94790118E-04 -0.23546327E-03
    5    3   -0.17379771E-01 -0.35606674E-02
    6    3   -0.35473609E-01  0.19545155E-01
    1    4    0.31932919E-02 -0.22589229E-02
    2    4   -0.11365219E-04  0.37956807E-04
    3    4    0.13106635E-03  0.35648009E-03
    4    4   -0.40384730E-02 -0.27248629E-04
    5    4    0.13517081E-03 -0.77645540E-04
    6    4   -0.14542859E-04 -0.64908135E-04
    1    5   -0.15102165E-03  0.19222772E-04
    2    5    0.90470551E-03  0.51736772E-04
    3    5   -0.16920910E-01  0.23176865E-02
    4    5    0.76697946E-04  0.53518997E-04
    5    5    0.13545545E-02  0.38630154E-03
    6    5    0.18747730E-02 -0.18421275E-02
    1    6    0.57016915E-04 -0.91945023E-04
    2    6   -0.16860611E-04  0.17640022E-02
    3    6    0.87991871E-02 -0.33500022E-02
    4    6   -0.43484708E-04 -0.10472751E-04
    5    6   -0.16851325E-02  0.33664025E-03
    6    6   -0.41155471E-03  0.12028612E-03

   -5   -2    0
    1    1   -0.30427892E-02  0.21930272E-04
    2    1    0.11085980E-03  0.73405306E-04
    3    1   -0.34297399E-03 -0.28477076E-03
    4    1    0.99703454E-02  0.70872757E-02
    5    1   -0.12530158E-03  0.58870940E-04
    6    1    0.10271527E-04  0.31661827E-04
    1    2    0.24245074E-04 -0.66603089E-04
    2    2   -0.38181186E-03  0.24587674E-03
    3    2   -0.78016975E-02  0.61438187E-02
    4    2    0.74798589E-05  0.87169446E-05
    5    2    0.16517548E-02 -0.87982395E-03
    6    2    0.88952548E-03  0.15741201E-02
    1    3    0.84479527E-04 -0.13369029E-03
    2    3    0.39166927E-01 -0.11714003E-01
    3    3    0.87427200E-02 -0.14361612E-03
    4    3   -0.71576420E-03 -0.45380940E-03
    5    3   -0.20784664E-01 -0.50990301E-02
    6    3    0.19602587E-01  0.26055230E-02
    1    4   -0.32481922E-02  0.24066415E-02
    2    4   -0.85309086E-05  0.63770742E-04
    3    4    0.45837236E-03 -0.81500038E-04
    4    4   -0.40398119E-02 -0.25400464E-04
    5    4    0.48926542E-04 -0.59454736E-04
    6    4   -0.15803939E-04 -0.43659022E-05
    1    5   -0.22838751E-03  0.71444303E-04
    2    5   -0.23060960E-02  0.15764205E-02
    3    5   -0.15364813E-01  0.93150732E-03
    4    5    0.91894787E-04  0.69818865E-04
    5    5    0.12982108E-02  0.34957282E-03
    6    5   -0.92702448E-03  0.39040287E-04
    1    6   -0.12546689E-03 -0.76415716E-05
    2    6   -0.47301008E-03 -0.10489357E-02
    3    6   -0.15181994E-01 -0.98526584E-02
    4    6   -0.55243986E-05  0.33059989E-04
    5    6    0.16135892E-02  0.35011177E-04
    6    6    0.12375654E-02 -0.44836324E-03

   -5   -1    0
    1    1   -0.21762241E-02 -0.17501916E-04
    2    1   -0.57503115E-04 -0.51046456E-04
    3    1   -0.72196835E-04 -0.94909070E-04
    4    1    0.82870534E-02  0.44702827E-02
    5    1   -0.32430684E-03 -0.41114932E-04
    6    1   -0.41885192E-04 -0.18534870E-04
    1    2   -0.87190456E-04  0.94156281E-04
    2    2   -0.13314895E-02  0.84142945E-03
    3    2   -0.21366173E-01 -0.40869196E-03
    4    2    0.47862124E-06  0.30938676E-05
    5    2    0.88183889E-03  0.24641830E-03
    6    2   -0.52946676E-03  0.38103816E-03
    1    3   -0.41841830E-05 -0.27014582E-04
    2    3   -0.19977578E-01  0.29899215E-03
    3    3   -0.11003423E-01  0.12604093E-03
    4    3    0.40032569E-03  0.67707971E-03
    5    3    0.47775877E-01 -0.69705180E-02
    6    3    0.10991883E-01  0.96231890E-03
    1    4    0.31885762E-02 -0.22629539E-02
    2    4   -0.86340380E-04 -0.18010431E-04
    3    4    0.18790667E-04 -0.66955933E-03
    4    4   -0.10656733E-01  0.17600382E-04
    5    4    0.99408642E-04 -0.24323693E-04
    6    4    0.68236845E-04 -0.20909923E-04
    1    5   -0.18157353E-03  0.79836671E-04
    2    5    0.87672319E-03  0.40210370E-03
    3    5    0.26090522E-01  0.92731932E-03
    4    5    0.11992974E-03  0.33251101E-04
    5    5   -0.15265689E-02  0.82554790E-03
    6    5   -0.56813357E-03  0.28117377E-03
    1    6    0.54683614E-04  0.19797912E-04
    2    6    0.30624166E-03  0.48420713E-03
    3    6    0.24600430E-01  0.70198425E-02
    4    6    0.48837566E-04  0.34875218E-04
    5    6    0.24034254E-03  0.42824619E-03
    6    6   -0.21580163E-02 -0.17931168E-02

   -4   -5    0
    1    1   -0.21745816E-02  0.17614474E-04
    2    1    0.38389227E-04  0.94593979E-05
    3    1   -0.16258534E-03 -0.36342203E-03
    4    1    0.94162810E-02  0.36445811E-02
    5    1   -0.13706115E-03  0.48332644E-04
    6    1   -0.54506209E-04  0.11124990E-04
    1    2    0.44839834E-04 -0.20822309E-04
    2    2   -0.22652203E-02  0.17762434E-02
    3    2   -0.93355540E-02  0.25197324E-02
    4    2   -0.50680423E-04  0.70741204E-05
    5    2    0.86015805E-03 -0.77352571E-04
    6    2   -0.93441539E-03  0.64147008E-05
    1    3   -0.11607460E-04  0.27258509E-03
    2    3   -0.24606956E-01  0.15371880E-02
    3    3   -0.10877538E-01  0.22753594E-05
    4    3    0.88446987E-03  0.44512683E-03
    5    3    0.25698157E-01 -0.13530451E-02
    6    3    0.20621067E-01 -0.40844025E-02
    1    4    0.99718942E-02 -0.70848522E-02
    2    4   -0.81244120E-04  0.18973505E-04
    3    4    0.71274114E-03 -0.58913170E-03
    4    4   -0.10656036E-01 -0.18706526E-04
    5    4    0.80226744E-04 -0.67292886E-04
    6    4   -0.52000983E-04  0.26968444E-04
    1    5   -0.17842856E-03 -0.32201669E-04
    2    5   -0.23695959E-03  0.46939130E-04
    3    5    0.46957550E-01  0.64963783E-02
    4    5    0.11996382E-03  0.54098169E-04
    5    5   -0.14487872E-02 -0.92723408E-03
    6    5   -0.67219328E-03  0.45985953E-03
    1    6   -0.20948130E-04 -0.17037841E-04
    2    6    0.25384935E-03 -0.89554887E-04
    3    6    0.21275981E-01  0.52552008E-02
    4    6   -0.56483366E-04 -0.33924437E-05
    5    6   -0.75569127E-03  0.29518003E-03
    6    6   -0.14302914E-02 -0.85019266E-03

   -4   -4    0
    1    1    0.47366690E-02  0.13500304E-06
    2    1    0.60843664E-04  0.40939106E-04
    3    1    0.48806020E-03  0.30712499E-03
    4    1    0.82847853E-02  0.44613202E-02
    5    1   -0.28397970E-04  0.45149195E-04
    6    1    0.91009079E-04 -0.51171220E-04
    1    2    0.71757926E-04 -0.28468302E-04
    2    2    0.72503098E-04  0.20331915E-04
    3    2    0.36481459E-01 -0.74349856E-02
    4    2   -0.16060691E-03  0.30022617E-05
    5    2   -0.26429848E-02  0.15460145E-02
    6    2   -0.18846680E-02  0.36204762E-03
    1    3   -0.20436968E-03 -0.12280202E-03
    2    3   -0.14902056E-01 -0.52613695E-02
    3    3   -0.56648818E-02 -0.39956525E-04
    4    3   -0.89115977E-03 -0.44137405E-03
    5    3   -0.20674718E-01 -0.19922171E-02
    6    3   -0.38259333E-01  0.13931706E-01
    1    4    0.82919031E-02 -0.44655882E-02
    2    4    0.72277080E-04 -0.47466355E-04
    3    4    0.24365201E-03  0.17540438E-03
    4    4   -0.69923507E-02 -0.15438804E-05
    5    4    0.14619589E-04 -0.43232944E-04
    6    4    0.50172456E-04 -0.24500465E-04
    1    5   -0.29569121E-03  0.90378224E-05
    2    5    0.19034062E-02  0.33820815E-04
    3    5   -0.13385217E-01 -0.46770791E-02
    4    5    0.24583353E-03  0.14748564E-03
    5    5    0.13768665E-02  0.99448011E-03
    6    5    0.21066004E-02 -0.12430779E-03
    1    6    0.58259096E-04 -0.42696553E-04
    2    6    0.26466852E-02  0.17773088E-02
    3    6    0.21507694E-01  0.10065244E-01
    4    6    0.17345628E-04 -0.24265337E-05
    5    6   -0.39673858E-04 -0.15749062E-04
    6    6    0.14768206E-02 -0.97344662E-03

   -4   -3    0
    1    1    0.10911361E-01 -0.52125898E-04
    2    1   -0.66761812E-04  0.29551594E-04
    3    1   -0.77927916E-03 -0.27531581E-03
    4    1   -0.47136467E-02 -0.34583588E-02
    5    1    0.25132689E-03  0.22337943E-04
    6    1    0.24069697E-05 -0.47986026E-04
    1    2    0.25724229E-05 -0.98474423E-04
    2    2    0.21889799E-02  0.59483108E-03
    3    2    0.24973563E-01 -0.43741668E-02
    4    2    0.97662245E-04  0.32056293E-04
    5    2    0.60365131E-04  0.38165995E-04
    6    2    0.36288909E-02 -0.30460734E-03
    1    3    0.76608364E-04 -0.13365124E-03
    2    3    0.40488525E-01  0.72228361E-02
    3    3    0.12818336E-01 -0.43259866E-03
    4    3   -0.46858361E-03 -0.18838983E-03
    5    3   -0.13676328E-01  0.69971574E-02
    6    3    0.10664011E-01 -0.88580786E-02
    1    4   -0.83503195E-02  0.39701890E-02
    2    4    0.46675378E-05 -0.21650088E-04
    3    4   -0.20082487E-02  0.23251017E-03
    4    4    0.46494140E-02  0.48509090E-04
    5    4   -0.16659225E-03  0.56555545E-04
    6    4   -0.30615327E-04  0.47926538E-04
    1    5   -0.27144823E-03  0.63198698E-04
    2    5   -0.92057548E-03 -0.50844875E-03
    3    5   -0.29350754E-01 -0.13871919E-01
    4    5    0.74033879E-04  0.23999581E-04
    5    5    0.11359270E-02 -0.70861549E-03
    6    5    0.44045274E-03  0.32789529E-03
    1    6   -0.16922215E-03  0.29589292E-04
    2    6   -0.23357045E-02 -0.18154909E-02
    3    6   -0.55414058E-01 -0.51917305E-02
    4    6    0.74606533E-04  0.54082053E-04
    5    6    0.20535985E-02 -0.10055374E-02
    6    6    0.35197306E-02  0.54999988E-03

   -4   -2    0
    1    1    0.15945986E-01 -0.32192156E-03
    2    1   -0.44785682E-05 -0.15166220E-04
    3    1   -0.41708995E-03 -0.40296996E-04
    4    1   -0.47073274E-02 -0.34617353E-02
    5    1    0.26876869E-03  0.10227252E-03
    6    1    0.27436744E-04 -0.25617067E-04
    1    2   -0.15726141E-03  0.65266629E-04
    2    2   -0.33048279E-02 -0.13690978E-02
    3    2   -0.55499457E-01  0.11139460E-02
    4    2    0.11835280E-03  0.62636782E-04
    5    2    0.11489354E-02  0.15785695E-03
    6    2   -0.64701999E-03  0.10304464E-02
    1    3   -0.14049981E-04  0.11673410E-03
    2    3   -0.17301565E-01 -0.66397456E-02
    3    3   -0.12320270E-01 -0.21502953E-03
    4    3    0.65998613E-03  0.47288517E-03
    5    3    0.37782512E-01 -0.14882336E-01
    6    3    0.19502370E-01  0.15292827E-02
    1    4   -0.17919947E-01  0.13442705E-01
    2    4    0.11983067E-03 -0.96472833E-04
    3    4    0.56074894E-03 -0.42163453E-03
    4    4    0.12827134E-01  0.32369950E-03
    5    4   -0.44284752E-03  0.26998506E-03
    6    4    0.43262168E-05  0.11602343E-03
    1    5    0.20848276E-03  0.43834410E-04
    2    5    0.56430416E-02  0.18635830E-02
    3    5    0.52442502E-01  0.18243648E-01
    4    5    0.23076627E-04  0.10653368E-04
    5    5   -0.41657575E-02  0.30285146E-02
    6    5   -0.60247053E-02  0.27790331E-04
    1    6   -0.16109009E-04  0.13660942E-03
    2    6   -0.66842351E-03  0.77482035E-03
    3    6    0.55559865E-01  0.13280624E-01
    4    6    0.95204215E-04  0.18144272E-05
    5    6   -0.12979571E-02 -0.29339046E-03
    6    6   -0.31831120E-02 -0.14461653E-02

   -4   -1    0
    1    1    0.10914837E-01 -0.40713771E-04
    2    1    0.21287663E-03  0.47271258E-04
    3    1    0.67423583E-03  0.59772318E-03
    4    1    0.82872806E-02  0.44614530E-02
    5    1    0.15856647E-04 -0.19118313E-04
    6    1   -0.11642281E-03 -0.15443545E-04
    1    2   -0.27330941E-03  0.14847160E-03
    2    2    0.31364131E-02  0.60691369E-03
    3    2    0.53886311E-01 -0.78301107E-02
    4    2    0.61614002E-04  0.16437170E-05
    5    2   -0.18462528E-02  0.14781983E-02
    6    2   -0.28291567E-02 -0.42911894E-03
    1    3   -0.53298169E-04  0.66401753E-04
    2    3   -0.12843287E-01  0.71665040E-02
    3    3    0.12995602E-01 -0.61025223E-03
    4    3    0.59924429E-03 -0.10658761E-03
    5    3   -0.10208033E-01  0.89570837E-02
    6    3   -0.40134077E-01  0.19276968E-02
    1    4   -0.17913923E-01  0.13443828E-01
    2    4   -0.10762550E-03  0.82911593E-04
    3    4   -0.15791730E-02  0.88208987E-03
    4    4    0.46513056E-02  0.43846927E-04
    5    4   -0.98752525E-04  0.57591681E-04
    6    4   -0.88522473E-05 -0.38262777E-04
    1    5    0.13507670E-03 -0.85480078E-04
    2    5   -0.83555210E-03 -0.74811869E-03
    3    5   -0.32574402E-01 -0.11719926E-01
    4    5    0.11170773E-03  0.27692183E-04
    5    5    0.13192400E-02 -0.79207845E-03
    6    5    0.99414906E-03  0.33356164E-03
    1    6    0.48648167E-04 -0.11643031E-03
    2    6    0.30786246E-02  0.12917699E-02
    3    6   -0.27751405E-01 -0.45225351E-02
    4    6   -0.11563253E-03 -0.73253456E-04
    5    6   -0.38744549E-03 -0.20901557E-03
    6    6    0.22063505E-02  0.79228383E-03

   -4    0    0
    1    1    0.47399360E-02 -0.73385700E-05
    2    1    0.15172245E-03  0.44952078E-04
    3    1   -0.21098952E-03 -0.34489849E-03
    4    1    0.94143486E-02  0.36460766E-02
    5    1   -0.11531233E-03  0.10817117E-03
    6    1    0.63518048E-04  0.68661352E-04
    1    2   -0.78960606E-04 -0.14832685E-03
    2    2    0.13440938E-02 -0.97272705E-03
    3    2   -0.22785421E-01 -0.54665968E-02
    4    2   -0.10216270E-03 -0.87498085E-06
    5    2   -0.33428769E-03  0.47230937E-04
    6    2    0.29373500E-02  0.61310971E-03
    1    3    0.14314567E-03 -0.20210345E-03
    2    3    0.39522698E-01 -0.57402745E-02
    3    3   -0.56013899E-02  0.34304643E-05
    4    3   -0.13457052E-02 -0.77199880E-03
    5    3   -0.24886632E-01 -0.38178094E-02
    6    3    0.13765240E-01  0.19974628E-02
    1    4   -0.83482458E-02  0.39757339E-02
    2    4   -0.12116913E-03  0.88331616E-04
    3    4    0.14751870E-02 -0.19687178E-03
    4    4   -0.69937896E-02  0.30073253E-05
    5    4   -0.59203158E-04 -0.11488868E-04
    6    4   -0.75376401E-04  0.61542995E-04
    1    5   -0.38052497E-03  0.75389389E-04
    2    5   -0.18012136E-02 -0.73395229E-04
    3    5   -0.84406782E-02 -0.66095876E-02
    4    5    0.29182893E-03  0.19160760E-03
    5    5    0.15496826E-02  0.11734470E-02
    6    5   -0.20183015E-02  0.40597214E-03
    1    6   -0.87142730E-04  0.91500533E-04
    2    6   -0.18966043E-02 -0.63097939E-03
    3    6   -0.35730453E-01  0.52360575E-04
    4    6    0.18214458E-04  0.70656334E-04
    5    6    0.31003563E-02 -0.70962732E-03
    6    6   -0.32906122E-04 -0.19981915E-03

   -4    1    0
    1    1   -0.21762241E-02  0.17501916E-04
    2    1   -0.87190456E-04 -0.94156281E-04
    3    1   -0.41841830E-05  0.27014582E-04
    4    1    0.31885762E-02  0.22629539E-02
    5    1   -0.18157353E-03 -0.79836671E-04
    6    1    0.54683614E-04 -0.19797912E-04
    1    2   -0.57503115E-04  0.51046456E-04
    2    2   -0.13314895E-02 -0.84142945E-03
    3    2   -0.19977578E-01 -0.29899215E-03
    4    2   -0.86340380E-04  0.18010431E-04
    5    2    0.87672319E-03 -0.40210370E-03
    6    2    0.30624166E-03 -0.48420713E-03
    1    3   -0.72196835E-04  0.94909070E-04
    2    3   -0.21366173E-01  0.40869196E-03
    3    3   -0.11003423E-01 -0.12604093E-03
    4    3    0.18790667E-04  0.66955933E-03
    5    3    0.26090522E-01 -0.92731932E-03
    6    3    0.24600430E-01 -0.70198425E-02
    1    4    0.82870534E-02 -0.44702827E-02
    2    4    0.47862124E-06 -0.30938676E-05
    3    4    0.40032569E-03 -0.67707971E-03
    4    4   -0.10656733E-01 -0.17600382E-04
    5    4    0.11992974E-03 -0.33251101E-04
    6    4    0.48837566E-04 -0.34875218E-04
    1    5   -0.32430684E-03  0.41114932E-04
    2    5    0.88183889E-03 -0.24641830E-03
    3    5    0.47775877E-01  0.69705180E-02
    4    5    0.99408642E-04  0.24323693E-04
    5    5   -0.15265689E-02 -0.82554790E-03
    6    5    0.24034254E-03 -0.42824619E-03
    1    6   -0.41885192E-04  0.18534870E-04
    2    6   -0.52946676E-03 -0.38103816E-03
    3    6    0.10991883E-01 -0.96231890E-03
    4    6    0.68236845E-04  0.20909923E-04
    5    6   -0.56813357E-03 -0.28117377E-03
    6    6   -0.21580163E-02  0.17931168E-02

   -3   -6    0
    1    1   -0.10460371E-01  0.87652334E-04
    2    1    0.28314110E-04 -0.26561725E-04
    3    1   -0.45503010E-04 -0.12619891E-03
    4    1    0.41057599E-02 -0.16323904E-02
    5    1    0.29870128E-04  0.51615202E-04
    6    1   -0.51211513E-04 -0.17622012E-04
    1    2    0.76800757E-04  0.14100746E-05
    2    2   -0.30005812E-03 -0.12137027E-03
    3    2   -0.10861359E-01 -0.84658319E-02
    4    2    0.11615793E-04  0.52031183E-04
    5    2    0.18515352E-02 -0.17574627E-03
    6    2   -0.17705246E-02  0.38949831E-03
    1    3    0.59550747E-05  0.18190829E-03
    2    3   -0.75119294E-02  0.58566938E-02
    3    3   -0.25975124E-01  0.63301230E-03
    4    3    0.11487409E-03  0.37850728E-03
    5    3    0.20598249E-01  0.13690752E-02
    6    3    0.65044921E-02 -0.63052149E-02
    1    4    0.11216811E-01 -0.32581149E-02
    2    4    0.29385275E-04 -0.10942680E-04
    3    4    0.14785053E-03 -0.60328179E-03
    4    4   -0.36385207E-02 -0.87683657E-04
    5    4    0.93718826E-04 -0.34304944E-04
    6    4   -0.42057890E-05  0.27171871E-04
    1    5   -0.17085083E-03 -0.76683061E-04
    2    5    0.16807584E-02 -0.14783219E-03
    3    5    0.39909637E-01 -0.30660624E-02
    4    5    0.38688428E-04  0.98201002E-05
    5    5    0.51850369E-04 -0.26839305E-03
    6    5   -0.16954175E-02  0.45897005E-03
    1    6   -0.31950554E-04  0.28396551E-04
    2    6   -0.16842655E-02 -0.75409728E-04
    3    6    0.10501281E-01  0.99182796E-02
    4    6   -0.35233672E-04 -0.24838776E-04
    5    6   -0.17706191E-02 -0.13370560E-03
    6    6    0.98293302E-05 -0.24321766E-03

   -3   -5    0
    1    1   -0.30459079E-02 -0.27450962E-04
    2    1    0.10605707E-03  0.82330610E-04
    3    1    0.26414862E-03  0.29595170E-03
    4    1    0.31884847E-02  0.22589653E-02
    5    1    0.89817607E-04  0.56748663E-04
    6    1    0.16546990E-04 -0.36355935E-04
    1    2    0.62399610E-04 -0.84074273E-04
    2    2    0.11883856E-02  0.37005129E-03
    3    2    0.48045035E-01  0.24730844E-02
    4    2   -0.47431186E-04  0.21163651E-04
    5    2   -0.39235076E-03  0.16669020E-02
    6    2   -0.77713585E-03  0.26790859E-03
    1    3   -0.26979390E-03 -0.15017168E-04
    2    3   -0.11760433E-01 -0.26180643E-02
    3    3    0.88452916E-02  0.11708019E-03
    4    3   -0.40091968E-03 -0.20509224E-03
    5    3   -0.11637161E-01 -0.18866066E-02
    6    3   -0.12995691E-01  0.58866361E-02
    1    4    0.11219506E-01 -0.32569715E-02
    2    4   -0.30190663E-04 -0.41467749E-04
    3    4   -0.24124444E-03  0.52138538E-03
    4    4   -0.40397131E-02  0.28207842E-04
    5    4   -0.68203527E-04 -0.25575845E-04
    6    4    0.89292692E-04 -0.18165856E-04
    1    5   -0.15878134E-03 -0.10764078E-03
    2    5    0.60096764E-03 -0.90303701E-03
    3    5   -0.13046717E-01  0.39082175E-02
    4    5    0.49169538E-04  0.38976507E-04
    5    5   -0.45181610E-03 -0.24680825E-03
    6    5    0.23221451E-02  0.14598011E-02
    1    6    0.37937079E-04  0.26298255E-04
    2    6    0.15666605E-02  0.56149918E-03
    3    6    0.21274463E-01  0.40814088E-02
    4    6    0.47857428E-04 -0.20498918E-04
    5    6   -0.17092905E-02 -0.84881953E-03
    6    6    0.13178433E-02 -0.24108012E-03

   -3   -4    0
    1    1    0.10907686E-01  0.47826131E-04
    2    1   -0.84446949E-04 -0.64558662E-04
    3    1   -0.41440822E-03 -0.10635588E-03
    4    1   -0.83536012E-02 -0.39724822E-02
    5    1    0.41224006E-03 -0.15744709E-04
    6    1   -0.92365067E-05 -0.43007124E-04
    1    2   -0.41587918E-04  0.31020759E-04
    2    2    0.22442719E-02 -0.54199382E-03
    3    2   -0.44674828E-01 -0.15986083E-02
    4    2    0.11921444E-03  0.83330349E-05
    5    2    0.26753625E-02 -0.14468465E-02
    6    2    0.91316135E-03 -0.66149073E-03
    1    3    0.83009305E-04 -0.69869731E-04
    2    3    0.28842678E-01  0.15598541E-02
    3    3    0.12788002E-01  0.55426663E-03
    4    3   -0.19121481E-03 -0.27520392E-04
    5    3   -0.67004191E-02  0.33557659E-02
    6    3    0.50381806E-02 -0.43805837E-02
    1    4   -0.47098927E-02  0.34578771E-02
    2    4   -0.93262292E-04  0.26831823E-04
    3    4   -0.83344264E-03  0.41894097E-04
    4    4    0.46548830E-02 -0.50130630E-04
    5    4   -0.13799042E-03  0.42533997E-04
    6    4   -0.28418581E-04  0.58229261E-04
    1    5   -0.15515034E-03  0.62664743E-04
    2    5   -0.35458230E-02  0.61054400E-04
    3    5   -0.38854143E-01 -0.83898536E-02
    4    5    0.12584123E-03  0.51284408E-04
    5    5    0.34209898E-02 -0.74441512E-03
    6    5    0.58905007E-03 -0.56424931E-03
    1    6   -0.11094527E-03 -0.81159452E-05
    2    6   -0.23403819E-03  0.70396478E-04
    3    6   -0.76401581E-01 -0.19125050E-01
    4    6   -0.21434353E-04  0.32001591E-04
    5    6    0.17094352E-02  0.13927661E-02
    6    6    0.12079155E-02  0.73444681E-03

   -3   -3    0
    1    1    0.10726586E-01  0.34641036E-05
    2    1   -0.11656408E-03 -0.26879262E-04
    3    1   -0.47349204E-03 -0.10307124E-04
    4    1   -0.21660555E-01 -0.12931071E-01
    5    1    0.43615981E-03  0.28209646E-04
    6    1    0.77717942E-04  0.81216727E-04
    1    2   -0.32655992E-03  0.15582667E-03
    2    2   -0.40401234E-02 -0.47931551E-04
    3    2    0.37931504E-02  0.13257770E-01
    4    2    0.19502295E-03  0.10881872E-04
    5    2    0.17267852E-03 -0.15527949E-02
    6    2    0.36897144E-02 -0.69020662E-03
    1    3    0.18297851E-03  0.16584319E-03
    2    3   -0.11500242E-01 -0.39619676E-02
    3    3    0.14113547E-01 -0.34224097E-04
    4    3    0.13429726E-02  0.56978814E-03
    5    3    0.39207320E-01 -0.88754418E-02
    6    3    0.22855787E-01 -0.55146765E-03
    1    4   -0.21665862E-01  0.12938166E-01
    2    4   -0.52859261E-04  0.59766138E-04
    3    4    0.20717455E-02 -0.35900766E-03
    4    4    0.18469545E-01  0.13751939E-05
    5    4   -0.32772841E-03  0.21300471E-03
    6    4   -0.12267286E-04  0.10433925E-04
    1    5    0.29407406E-03  0.42555883E-04
    2    5   -0.34781695E-02 -0.44877144E-04
    3    5    0.82312136E-01  0.23969965E-01
    4    5   -0.17664652E-03 -0.12942608E-03
    5    5   -0.46982604E-03 -0.11083652E-02
    6    5    0.33359002E-02 -0.48656330E-03
    1    6   -0.20007195E-04  0.48980220E-04
    2    6   -0.89111686E-04 -0.15040939E-02
    3    6    0.73242855E-01  0.82997973E-02
    4    6    0.28282841E-04  0.34542179E-04
    5    6   -0.95091027E-03 -0.14239752E-03
    6    6   -0.26481681E-03  0.11856815E-02

   -3   -2    0
    1    1   -0.43689332E-02  0.39623536E-03
    2    1   -0.16322742E-03 -0.16233813E-03
    3    1    0.37179202E-02  0.98955575E-03
    4    1   -0.23953743E-01 -0.20177053E-01
    5    1    0.50291091E-03  0.24465188E-04
    6    1   -0.59405327E-04 -0.17001675E-03
    1    2    0.43866112E-04  0.13361961E-03
    2    2   -0.15270498E-02 -0.20690295E-02
    3    2   -0.91422048E-01  0.49106328E-02
    4    2   -0.15529511E-03 -0.11215731E-03
    5    2   -0.80959976E-02  0.24051599E-03
    6    2   -0.45835605E-02  0.12692651E-02
    1    3   -0.62189235E-04 -0.19539804E-03
    2    3   -0.12203092E-01 -0.37590143E-02
    3    3   -0.32732861E-01 -0.87874273E-04
    4    3   -0.23248743E-03 -0.36769341E-03
    5    3   -0.19821873E-01  0.31662875E-02
    6    3   -0.46063056E-01  0.12682535E-01
    1    4   -0.14290521E-02  0.24720922E-03
    2    4    0.37454617E-03  0.94229928E-04
    3    4    0.31651600E-02 -0.23511202E-03
    4    4    0.23767618E-01 -0.39403037E-03
    5    4    0.75692561E-05  0.12165631E-03
    6    4    0.81233155E-04 -0.19735488E-03
    1    5    0.42006174E-03 -0.20088396E-04
    2    5    0.53867766E-02  0.16245291E-02
    3    5   -0.43875543E-01 -0.65455523E-02
    4    5   -0.27808635E-03 -0.18225167E-03
    5    5    0.32983518E-02  0.45352757E-03
    6    5    0.47477421E-02 -0.23052742E-02
    1    6    0.17696552E-03 -0.27817701E-03
    2    6    0.13866669E-02  0.78498183E-03
    3    6   -0.11742232E+00 -0.48897711E-01
    4    6   -0.14430453E-03 -0.12265844E-03
    5    6    0.63464494E-03 -0.46208756E-03
    6    6    0.70509025E-02  0.17011712E-02

   -3   -1    0
    1    1   -0.43766867E-02  0.36031018E-03
    2    1   -0.88130333E-04 -0.63396702E-04
    3    1   -0.17923877E-02 -0.17661451E-02
    4    1   -0.21670490E-01 -0.12925465E-01
    5    1    0.46023352E-03 -0.75460827E-04
    6    1   -0.21592247E-04  0.10090105E-03
    1    2    0.17669856E-03 -0.19388435E-03
    2    2    0.67646970E-02  0.15393101E-02
    3    2    0.12194507E+00  0.13291586E-01
    4    2    0.26661262E-03  0.20125091E-04
    5    2   -0.77872222E-03  0.68584740E-03
    6    2    0.14572823E-02  0.39134102E-03
    1    3   -0.33470760E-03  0.46281926E-05
    2    3    0.47469609E-01 -0.21901996E-02
    3    3   -0.32882184E-01  0.50708684E-03
    4    3   -0.10552684E-02 -0.40497557E-03
    5    3   -0.23758993E-01  0.10066190E-02
    6    3    0.10902568E-01  0.23749964E-02
    1    4   -0.20821535E-02  0.10013130E-01
    2    4    0.43748069E-04  0.70199071E-04
    3    4    0.12533018E-02 -0.18448506E-03
    4    4    0.23763082E-01 -0.37143061E-03
    5    4   -0.13184490E-03  0.80766105E-04
    6    4   -0.85930003E-04  0.28933989E-04
    1    5    0.12296349E-02 -0.19599736E-03
    2    5   -0.54957771E-02  0.10503111E-02
    3    5   -0.50678211E-01 -0.12694957E-01
    4    5   -0.19367982E-03 -0.11872724E-03
    5    5    0.35702777E-02  0.50638335E-03
    6    5   -0.54427055E-02 -0.35991794E-03
    1    6   -0.10292628E-03  0.30041846E-03
    2    6   -0.43955410E-02 -0.61486116E-03
    3    6    0.90474952E-01  0.25338076E-01
    4    6    0.20732754E-03  0.28223444E-03
    5    6    0.81901663E-02  0.20759902E-02
    6    6   -0.13511589E-02 -0.25416599E-02

   -3    0    0
    1    1    0.10719423E-01 -0.17061112E-05
    2    1    0.40519941E-04 -0.34401988E-04
    3    1   -0.95885084E-04  0.64051481E-03
    4    1   -0.83450595E-02 -0.39721842E-02
    5    1    0.49605876E-03  0.11349535E-03
    6    1   -0.55270492E-04 -0.53554807E-04
    1    2   -0.95037007E-04  0.15624212E-03
    2    2   -0.38585987E-03  0.11250319E-02
    3    2   -0.70859118E-01  0.10654332E-01
    4    2    0.11844589E-03  0.98028677E-04
    5    2    0.11422883E-02 -0.25716435E-03
    6    2   -0.20628059E-03 -0.13243988E-02
    1    3   -0.93537663E-04  0.17163283E-03
    2    3   -0.20756358E-01 -0.43503753E-02
    3    3    0.13783328E-01 -0.12750627E-03
    4    3    0.78441294E-03  0.74566112E-03
    5    3    0.40338997E-01 -0.87275480E-02
    6    3    0.14234858E-01  0.57072495E-03
    1    4   -0.14676144E-02  0.24154095E-03
    2    4    0.13526113E-03 -0.38074268E-04
    3    4    0.13445458E-03 -0.11531428E-02
    4    4    0.18472603E-01  0.11566081E-05
    5    4   -0.38954782E-03  0.20674509E-03
    6    4    0.25098886E-03 -0.12146160E-03
    1    5    0.56298292E-03  0.10677271E-03
    2    5   -0.31338953E-02 -0.62283297E-03
    3    5    0.86450336E-01  0.24962909E-01
    4    5   -0.70735960E-04 -0.14895519E-03
    5    5   -0.50428805E-03 -0.10791326E-02
    6    5    0.38802254E-02 -0.84842488E-03
    1    6    0.83327357E-04  0.14380007E-04
    2    6    0.36633372E-02  0.12018343E-02
    3    6    0.11644981E-02 -0.15319470E-01
    4    6    0.65487828E-04 -0.83472468E-04
    5    6   -0.37965016E-03  0.13312233E-02
    6    6   -0.35502940E-02  0.82156510E-04

   -3    1    0
    1    1    0.10908395E-01  0.51891568E-04
    2    1    0.10820713E-03  0.25114649E-04
    3    1    0.18942881E-03  0.92698465E-05
    4    1    0.31891900E-02  0.22570033E-02
    5    1    0.11386005E-03 -0.37159661E-04
    6    1   -0.11003205E-03  0.96004101E-05
    1    2   -0.29555727E-03  0.16034144E-03
    2    2    0.10252203E-02  0.65898884E-03
    3    2    0.77852844E-01  0.74058612E-03
    4    2    0.18269430E-03 -0.29870587E-04
    5    2   -0.18062851E-02 -0.10979925E-02
    6    2   -0.16828647E-03  0.68300167E-04
    1    3   -0.10068501E-03  0.11434974E-03
    2    3   -0.47151784E-02  0.29236653E-02
    3    3    0.12873374E-01  0.66723736E-03
    4    3    0.81254050E-03 -0.25103066E-04
    5    3   -0.46978688E-02  0.47940911E-02
    6    3   -0.27866522E-01  0.48845023E-02
    1    4   -0.21668096E-01  0.12941313E-01
    2    4   -0.12519286E-03  0.34130209E-04
    3    4   -0.17452794E-02  0.85003250E-03
    4    4    0.46557305E-02 -0.49031964E-04
    5    4   -0.13060288E-03  0.37855208E-04
    6    4    0.35854783E-04 -0.60056113E-04
    1    5    0.23785437E-03 -0.34982286E-04
    2    5   -0.70744449E-03  0.43020043E-03
    3    5   -0.47449118E-01 -0.68280905E-02
    4    5    0.10302166E-03  0.49914549E-04
    5    5    0.35920516E-02 -0.71054672E-03
    6    5    0.33238276E-02 -0.86361574E-03
    1    6    0.26705441E-03 -0.45461430E-04
    2    6    0.70785130E-03 -0.43156131E-03
    3    6    0.41038952E-01  0.11497632E-01
    4    6   -0.12040713E-03 -0.50059335E-04
    5    6   -0.28969825E-02  0.77983291E-03
    6    6    0.21689765E-02 -0.61853909E-03

   -3    2    0
    1    1   -0.30436994E-02 -0.28353685E-04
    2    1    0.59125759E-04  0.46573081E-04
    3    1   -0.49533033E-04 -0.59980855E-04
    4    1    0.41047644E-02 -0.16313325E-02
    5    1    0.18441887E-05  0.15449591E-03
    6    1    0.35459624E-04 -0.35466607E-04
    1    2   -0.15911036E-04 -0.37774110E-04
    2    2    0.12328976E-02 -0.38929869E-03
    3    2   -0.22251790E-01  0.11911785E-02
    4    2   -0.11386441E-03 -0.13946413E-04
    5    2    0.15484111E-02  0.47548019E-03
    6    2    0.15917645E-02 -0.19516064E-03
    1    3    0.29780972E-03 -0.31953083E-03
    2    3    0.13344941E-01 -0.36413561E-02
    3    3    0.88859223E-02  0.16856141E-03
    4    3   -0.55447246E-03 -0.54571795E-03
    5    3   -0.13596433E-01 -0.34490800E-02
    6    3    0.11025070E-01 -0.65634211E-03
    1    4   -0.47044822E-02  0.34646018E-02
    2    4   -0.96521859E-04  0.31693119E-04
    3    4    0.83885923E-03  0.13458977E-03
    4    4   -0.40392823E-02  0.25735289E-04
    5    4   -0.74601000E-04  0.23752546E-04
    6    4   -0.52109927E-04  0.44018603E-04
    1    5   -0.20345631E-03  0.67805104E-04
    2    5   -0.21020548E-02 -0.19000005E-02
    3    5   -0.83000722E-02  0.21274504E-02
    4    5    0.96422237E-04  0.96436010E-04
    5    5   -0.34852366E-03 -0.20412003E-04
    6    5   -0.71715574E-03  0.10036408E-02
    1    6    0.67122532E-04 -0.31054235E-04
    2    6   -0.69260738E-03 -0.33537336E-03
    3    6   -0.45951663E-01 -0.12495790E-01
    4    6    0.11662611E-04 -0.95158423E-05
    5    6    0.68258817E-03 -0.16591374E-02
    6    6    0.11267689E-02  0.24376767E-03

   -2   -5    0
    1    1   -0.30491113E-02 -0.25585882E-04
    2    1   -0.90652602E-04 -0.43040987E-04
    3    1    0.30457159E-03  0.11398134E-03
    4    1   -0.32501753E-02 -0.24050944E-02
    5    1    0.16601432E-03  0.37340288E-04
    6    1   -0.67225358E-04 -0.38709519E-04
    1    2    0.90986380E-04 -0.45985505E-04
    2    2   -0.30806141E-03 -0.49733448E-04
    3    2   -0.23292242E-01  0.55194132E-02
    4    2   -0.33674032E-04 -0.40754885E-04
    5    2    0.68630139E-03 -0.10616557E-02
    6    2    0.24764184E-02  0.11629280E-02
    1    3   -0.53401873E-04 -0.12674835E-03
    2    3    0.85277608E-02 -0.13034540E-01
    3    3    0.87638035E-02  0.22256781E-03
    4    3   -0.31476496E-03 -0.34423210E-03
    5    3   -0.14642553E-01 -0.67153803E-02
    6    3    0.15094951E-01  0.43332806E-02
    1    4    0.99700410E-02 -0.70883507E-02
    2    4    0.27143300E-04  0.16009491E-04
    3    4    0.22419841E-03 -0.69229579E-04
    4    4   -0.40352398E-02  0.23658496E-04
    5    4    0.44311213E-04 -0.48301765E-04
    6    4   -0.63213989E-04  0.34871482E-04
    1    5   -0.16726187E-04  0.79588363E-05
    2    5   -0.58393753E-03  0.17973473E-02
    3    5   -0.11041018E-01  0.19715581E-02
    4    5    0.63165434E-04  0.50139528E-04
    5    5    0.11228890E-02  0.33147241E-03
    6    5   -0.96587553E-03  0.23720776E-05
    1    6    0.63029744E-04  0.19390990E-06
    2    6   -0.13549186E-02 -0.90967779E-03
    3    6   -0.37847924E-01 -0.13514787E-01
    4    6   -0.27678865E-04  0.11738820E-04
    5    6    0.15653283E-02  0.48765079E-03
    6    6    0.13198034E-02 -0.50237939E-03

   -2   -4    0
    1    1    0.15956109E-01  0.32616335E-03
    2    1   -0.23585908E-03 -0.92474358E-04
    3    1   -0.15086794E-02 -0.69774537E-03
    4    1   -0.17913822E-01 -0.13441459E-01
    5    1    0.43044247E-03 -0.34230085E-06
    6    1    0.78455563E-04  0.12828488E-04
    1    2    0.83716788E-04  0.70349361E-04
    2    2   -0.35321896E-02  0.15288672E-02
    3    2   -0.93648406E-02 -0.54686901E-02
    4    2    0.93231794E-04 -0.41207244E-05
    5    2    0.87968551E-03  0.82380345E-03
    6    2   -0.58031906E-02  0.25219786E-02
    1    3    0.27059251E-03  0.81838445E-04
    2    3   -0.10693974E-01 -0.14657513E-02
    3    3   -0.12376993E-01  0.17974441E-03
    4    3    0.62915362E-03  0.29810305E-03
    5    3    0.13228363E-01 -0.43131005E-02
    6    3    0.12749326E-01  0.90764729E-03
    1    4   -0.47102498E-02  0.34660922E-02
    2    4    0.20326543E-03 -0.18383557E-04
    3    4   -0.68061508E-04 -0.37075337E-03
    4    4    0.12820607E-01 -0.32490818E-03
    5    4   -0.16666586E-03  0.18745176E-03
    6    4   -0.43068510E-04  0.61848082E-04
    1    5    0.16428489E-03 -0.26947719E-04
    2    5    0.45694165E-03  0.85579747E-03
    3    5    0.34850386E-01 -0.43182751E-02
    4    5   -0.10827061E-03 -0.79779616E-04
    5    5   -0.29902043E-02  0.12530110E-02
    6    5   -0.53306676E-02  0.16716816E-02
    1    6   -0.19113306E-04  0.14736479E-05
    2    6   -0.12303567E-02 -0.23471741E-03
    3    6    0.21121568E-01  0.10833678E-01
    4    6   -0.55602077E-04  0.33411141E-04
    5    6   -0.12572577E-02 -0.29767177E-04
    6    6   -0.40781774E-02 -0.29628777E-02

   -2   -3    0
    1    1   -0.43724236E-02 -0.38727832E-03
    2    1    0.20285945E-03  0.64772069E-04
    3    1    0.36407823E-02  0.16038186E-02
    4    1   -0.14597841E-02 -0.25992321E-03
    5    1   -0.18766858E-03  0.52457296E-04
    6    1   -0.15317143E-03 -0.32936552E-04
    1    2   -0.14810751E-03  0.11441550E-03
    2    2   -0.11070231E-02  0.19221811E-02
    3    2    0.83404390E-01  0.14888087E-01
    4    2    0.13677043E-04  0.38231999E-05
    5    2   -0.10271293E-02  0.18976019E-03
    6    2   -0.51019886E-02  0.22026873E-02
    1    3   -0.19899191E-03 -0.24264494E-03
    2    3   -0.27046102E-01  0.19058546E-03
    3    3   -0.32632314E-01  0.23303884E-04
    4    3   -0.75501872E-03 -0.53051597E-03
    5    3   -0.18725966E-01  0.17023849E-02
    6    3   -0.25169385E-01  0.42186637E-02
    1    4   -0.23936442E-01  0.20167841E-01
    2    4    0.42696051E-03 -0.10177994E-03
    3    4    0.27924705E-02 -0.35544199E-03
    4    4    0.23762549E-01  0.38500143E-03
    5    4   -0.36715010E-03  0.95890386E-04
    6    4    0.22551382E-03 -0.73147455E-04
    1    5    0.37059199E-04 -0.19310551E-04
    2    5    0.49937423E-02  0.68432847E-03
    3    5   -0.38506483E-02  0.17849389E-01
    4    5   -0.15266420E-03 -0.13694893E-03
    5    5    0.64618486E-02 -0.17520665E-02
    6    5    0.55470132E-02  0.96946513E-03
    1    6   -0.15995232E-04 -0.15705624E-04
    2    6    0.84804611E-02  0.12584598E-02
    3    6    0.72788146E-01  0.55093852E-02
    4    6    0.22155431E-03 -0.20051323E-04
    5    6    0.10946419E-03  0.72639009E-03
    6    6    0.33753910E-02 -0.19114156E-03

   -2   -2    0
    1    1   -0.11765668E+00 -0.13943237E-04
    2    1   -0.20047246E-03 -0.26676434E-03
    3    1   -0.47518325E-02 -0.27684813E-02
    4    1    0.30900865E-01  0.16301057E-01
    5    1   -0.88411295E-03 -0.67689773E-04
    6    1   -0.13281071E-03  0.16147925E-03
    1    2    0.76614186E-03 -0.30786308E-03
    2    2   -0.26289666E-02 -0.20518117E-03
    3    2    0.53719458E-01 -0.52749152E-01
    4    2    0.62618869E-04 -0.19380997E-04
    5    2    0.16928633E-01 -0.31364093E-02
    6    2    0.25411094E-01 -0.15676029E-01
    1    3   -0.29825729E-03  0.38600303E-03
    2    3    0.35016355E-01  0.73986989E-02
    3    3    0.10828156E-01 -0.76655421E-04
    4    3   -0.10249725E-02 -0.54821639E-04
    5    3   -0.24262463E-01  0.67019970E-02
    6    3    0.10032976E-01 -0.61133200E-02
    1    4    0.30871333E-01 -0.16295511E-01
    2    4   -0.88940295E-03  0.18291111E-04
    3    4   -0.13005761E-01  0.13853437E-03
    4    4   -0.48416865E-01  0.62077072E-05
    5    4    0.11287403E-02 -0.70312175E-03
    6    4    0.92911017E-03 -0.83244100E-03
    1    5    0.67853972E-03 -0.10236359E-03
    2    5   -0.20922598E-01 -0.11029999E-01
    3    5    0.38411563E-01 -0.56877262E-01
    4    5    0.21971395E-03  0.64818011E-04
    5    5    0.29113208E-01 -0.22227647E-02
    6    5    0.66027882E-01 -0.79294550E-02
    1    6    0.30483772E-03  0.18569495E-03
    2    6   -0.13870061E-01 -0.41689387E-02
    3    6   -0.79275357E-01  0.57866576E-01
    4    6    0.26234335E-03  0.37108072E-03
    5    6    0.32504806E-01  0.38386375E-02
    6    6    0.33606290E-01  0.25123368E-02

   -2   -1    0
    1    1   -0.77323841E-01 -0.72533051E-03
    2    1    0.69422485E-05  0.36877085E-03
    3    1    0.69857908E-03  0.34845337E-02
    4    1    0.30926874E-01  0.16259141E-01
    5    1   -0.13781043E-02 -0.12004770E-05
    6    1    0.43738306E-03 -0.79739728E-04
    1    2    0.22281579E-02 -0.80719716E-03
    2    2    0.49696649E-02  0.46892306E-02
    3    2   -0.13703124E+00  0.24574760E+00
    4    2   -0.36143446E-03 -0.54396801E-04
    5    2    0.68936991E-02 -0.54455077E-02
    6    2    0.20563128E-01 -0.67753275E-02
    1    3    0.10002668E-02  0.13480194E-03
    2    3   -0.39065611E-01  0.29893612E-02
    3    3    0.22172081E+00 -0.54601827E-03
    4    3    0.23088442E-02  0.11962398E-02
    5    3    0.78360175E-01 -0.95096250E-02
    6    3    0.42120440E-01 -0.14093398E-01
    1    4    0.21094236E+00 -0.15229104E+00
    2    4   -0.61554014E-04 -0.14024578E-03
    3    4   -0.25724057E-01  0.17640488E-01
    4    4   -0.59162644E-01  0.75064716E-03
    5    4    0.60971317E-03 -0.62167078E-03
    6    4   -0.54753514E-03  0.20078515E-03
    1    5   -0.97921860E-03 -0.90321244E-03
    2    5    0.13239884E-01  0.15575051E-01
    3    5   -0.12146241E+01  0.14862536E+00
    4    5   -0.17156307E-02 -0.81060036E-03
    5    5   -0.12748397E-01 -0.93455807E-02
    6    5   -0.22729561E-01 -0.12135455E-01
    1    6    0.52940819E-03  0.91968018E-04
    2    6    0.21078119E-01  0.51979578E-02
    3    6    0.77560600E-01 -0.22849465E+00
    4    6   -0.12676028E-03 -0.61383260E-03
    5    6   -0.10315126E-01  0.20789691E-02
    6    6    0.58685315E-02  0.51770518E-02

   -2    0    0
    1    1   -0.11765988E+00  0.30909205E-04
    2    1   -0.41468110E-03 -0.15440887E-03
    3    1    0.18885495E-02 -0.12430599E-02
    4    1   -0.14509336E-02 -0.25820047E-03
    5    1   -0.88361080E-04 -0.26760203E-04
    6    1   -0.20291589E-04 -0.74197965E-04
    1    2    0.22030104E-02 -0.71232968E-03
    2    2    0.25055883E-01  0.23076034E-02
    3    2    0.86363559E-01 -0.70914206E-01
    4    2   -0.88961830E-03 -0.50341944E-03
    5    2   -0.31665823E-01  0.37642720E-02
    6    2   -0.14882313E-01  0.43474367E-02
    1    3    0.12645949E-02 -0.58360244E-03
    2    3   -0.12250676E-01  0.40278553E-02
    3    3    0.11669784E-01 -0.83077981E-03
    4    3    0.40725961E-03 -0.26436511E-03
    5    3   -0.21424605E-01  0.87111023E-02
    6    3   -0.36406782E-01  0.52097728E-03
    1    4    0.21118496E+00 -0.15234664E+00
    2    4   -0.12463610E-02  0.39157955E-03
    3    4   -0.21557614E-02  0.28616359E-02
    4    4   -0.48379193E-01 -0.24326593E-04
    5    4    0.18680263E-02 -0.10080612E-02
    6    4    0.11936053E-03 -0.70564495E-04
    1    5    0.34995917E-03 -0.28029031E-03
    2    5   -0.67472773E-01 -0.93827466E-02
    3    5    0.36084552E-01 -0.51352275E-01
    4    5    0.56644569E-03  0.28120559E-03
    5    5    0.36765675E-01 -0.26570151E-02
    6    5    0.26642683E-01  0.40930553E-02
    1    6    0.12605322E-04 -0.90287416E-04
    2    6    0.21358408E-01 -0.34163990E-02
    3    6   -0.52305055E-01  0.46733679E-01
    4    6   -0.95431122E-03 -0.21717916E-03
    5    6   -0.16083264E-01 -0.88086044E-03
    6    6   -0.26071228E-02  0.11736089E-02

   -2    1    0
    1    1   -0.43736204E-02 -0.38616189E-03
    2    1   -0.49747631E-04 -0.22432144E-05
    3    1   -0.87764682E-03 -0.12998364E-03
    4    1   -0.17920523E-01 -0.13437064E-01
    5    1    0.38376154E-03 -0.47422187E-05
    6    1    0.36618555E-04  0.17067767E-04
    1    2    0.18528371E-03 -0.33133890E-03
    2    2    0.32139905E-02 -0.66017059E-03
    3    2   -0.74924802E-01  0.12365258E-01
    4    2   -0.93618754E-04  0.88216366E-05
    5    2   -0.73118344E-03 -0.53699995E-03
    6    2    0.77436533E-02 -0.27312274E-02
    1    3   -0.68396427E-04 -0.29030903E-03
    2    3    0.23320327E-01  0.14078011E-02
    3    3   -0.32666500E-01 -0.89130970E-04
    4    3   -0.13114824E-02 -0.58913897E-03
    5    3   -0.22664897E-01 -0.18247599E-04
    6    3    0.24419060E-01 -0.60765370E-02
    1    4    0.30958110E-01 -0.16272387E-01
    2    4    0.18013269E-03 -0.20889037E-04
    3    4    0.35458334E-02 -0.11237258E-02
    4    4    0.23762372E-01  0.38217915E-03
    5    4   -0.24971679E-03  0.13237876E-03
    6    4   -0.17594539E-03  0.18001012E-03
    1    5    0.69456706E-03 -0.36312813E-03
    2    5   -0.42338859E-02 -0.22326386E-02
    3    5    0.85577343E-02  0.16130733E-01
    4    5   -0.13048132E-03  0.87896186E-04
    5    5    0.72923839E-02 -0.13805899E-02
    6    5   -0.51228696E-02  0.82033622E-04
    1    6   -0.72554303E-03 -0.23767544E-04
    2    6   -0.51264445E-02 -0.66641635E-03
    3    6   -0.79137532E-01 -0.34062367E-01
    4    6    0.21006447E-03  0.58290248E-04
    5    6    0.20226719E-02 -0.37743469E-03
    6    6   -0.17405982E-02  0.21338742E-02

   -2    2    0
    1    1    0.15955575E-01  0.32222446E-03
    2    1    0.69282560E-04 -0.41391817E-04
    3    1    0.24604639E-03  0.20080814E-03
    4    1   -0.32450487E-02 -0.24089427E-02
    5    1    0.20527797E-03  0.51033463E-04
    6    1    0.20640839E-04  0.74429278E-05
    1    2   -0.26864612E-03  0.21426990E-03
    2    2   -0.38968309E-02 -0.28576436E-02
    3    2   -0.21373713E-01 -0.69542379E-02
    4    2    0.23226949E-03  0.14255779E-03
    5    2    0.15375891E-02  0.11328239E-03
    6    2   -0.13662721E-02  0.15030250E-03
    1    3   -0.80835421E-04  0.26725884E-03
    2    3   -0.11962307E-01 -0.31979782E-02
    3    3   -0.12456991E-01  0.43410333E-04
    4    3    0.23849336E-03  0.41538983E-03
    5    3    0.14084423E-01 -0.39884250E-02
    6    3    0.10953653E-01 -0.84718236E-03
    1    4   -0.23956620E-01  0.20151808E-01
    2    4    0.20446486E-03 -0.43115129E-04
    3    4   -0.20674384E-03 -0.60799100E-03
    4    4    0.12820401E-01 -0.32233627E-03
    5    4   -0.21213873E-03  0.17755335E-03
    6    4    0.78979050E-04 -0.34482332E-04
    1    5    0.90889616E-04 -0.27123223E-04
    2    5    0.61271753E-02 -0.34895012E-04
    3    5    0.36656987E-01 -0.41604392E-02
    4    5   -0.75019052E-04 -0.11317399E-03
    5    5   -0.34080312E-02  0.15203520E-02
    6    5   -0.74230011E-03 -0.79744693E-03
    1    6   -0.12365889E-03  0.17416592E-03
    2    6   -0.57679880E-02 -0.35567926E-03
    3    6    0.10009423E-01  0.75110194E-02
    4    6    0.30257763E-04  0.69928053E-05
    5    6   -0.13895667E-03 -0.92551021E-03
    6    6   -0.32149701E-02  0.12939930E-02

   -2    3    0
    1    1   -0.30479001E-02 -0.28875607E-04
    2    1   -0.26881611E-04 -0.92062731E-04
    3    1   -0.70530934E-04 -0.18379996E-04
    4    1    0.41042431E-02 -0.16353447E-02
    5    1   -0.12409517E-03 -0.12241540E-04
    6    1    0.71893004E-04  0.76676613E-04
    1    2   -0.20747225E-03  0.76142019E-04
    2    2    0.12491000E-02 -0.35079872E-03
    3    2    0.40384190E-01  0.56861051E-02
    4    2    0.13206619E-04 -0.38076184E-04
    5    2   -0.15422411E-02  0.15595926E-03
    6    2   -0.17967394E-02 -0.28149945E-03
    1    3   -0.92050385E-04  0.10015602E-04
    2    3   -0.14282228E-01 -0.88647594E-02
    3    3    0.88594890E-02  0.10663952E-03
    4    3    0.15401962E-03 -0.12453700E-03
    5    3   -0.13582226E-01 -0.52319356E-02
    6    3   -0.54112258E-02  0.13080799E-01
    1    4   -0.47094329E-02  0.34659753E-02
    2    4   -0.51910695E-04  0.18829316E-04
    3    4   -0.41210049E-03  0.52242506E-03
    4    4   -0.40370991E-02  0.30535603E-04
    5    4    0.51303777E-04 -0.55666203E-04
    6    4   -0.31800355E-04 -0.51437362E-04
    1    5    0.11651190E-03  0.18976390E-04
    2    5    0.70102972E-03  0.11298018E-03
    3    5   -0.16382418E-01  0.38941680E-02
    4    5   -0.16033529E-04  0.21783758E-04
    5    5    0.12358645E-02  0.36862880E-03
    6    5    0.38416033E-03 -0.16689511E-02
    1    6    0.30529196E-04 -0.29944573E-04
    2    6    0.18152851E-02  0.22741463E-02
    3    6    0.22810154E-01 -0.68421665E-03
    4    6   -0.14181529E-04 -0.26323462E-04
    5    6   -0.93490220E-03  0.77563184E-03
    6    6   -0.44537074E-03 -0.12612960E-03

   -1   -5    0
    1    1   -0.21695705E-02  0.18888645E-04
    2    1   -0.28904202E-05  0.83075644E-04
    3    1    0.14403739E-03 -0.93159721E-04
    4    1    0.31914689E-02  0.22609394E-02
    5    1   -0.12065756E-03  0.93894913E-05
    6    1    0.84163683E-05 -0.28939621E-04
    1    2    0.51170576E-04 -0.54853087E-04
    2    2   -0.14083254E-02 -0.76369192E-03
    3    2   -0.37047651E-02 -0.39065732E-02
    4    2   -0.83578247E-04  0.22529784E-04
    5    2   -0.27340111E-03  0.58853048E-03
    6    2   -0.82665740E-03  0.50625915E-03
    1    3    0.27514653E-03  0.20010692E-03
    2    3   -0.13746811E-01 -0.81419159E-02
    3    3   -0.11014122E-01 -0.13785931E-03
    4    3    0.19718410E-03  0.10341353E-03
    5    3    0.71556905E-02 -0.12181127E-01
    6    3    0.14829005E-01  0.41573216E-02
    1    4    0.82849349E-02 -0.44660452E-02
    2    4   -0.77950421E-04 -0.34208954E-05
    3    4   -0.90091035E-04 -0.24089345E-03
    4    4   -0.10661003E-01 -0.18039256E-04
    5    4    0.17130878E-03 -0.41799329E-04
    6    4    0.39514787E-04 -0.21361433E-04
    1    5   -0.19302206E-03  0.25485684E-05
    2    5    0.51991018E-03  0.41261325E-03
    3    5    0.28085447E-01  0.13018546E-02
    4    5    0.42063578E-04  0.30656288E-04
    5    5   -0.21548086E-02  0.17935776E-02
    6    5   -0.53974845E-03  0.79942059E-05
    1    6    0.60557938E-04  0.39706968E-04
    2    6   -0.91979467E-03  0.12872638E-03
    3    6    0.47382107E-02  0.47089983E-02
    4    6    0.10438394E-04  0.15051364E-04
    5    6    0.41129465E-03 -0.33706692E-03
    6    6   -0.14446246E-02 -0.89287577E-03

   -1   -4    0
    1    1    0.10906952E-01  0.42939868E-04
    2    1   -0.10029149E-03 -0.86653057E-04
    3    1   -0.57346226E-03  0.39719710E-04
    4    1   -0.17919885E-01 -0.13446455E-01
    5    1    0.35948848E-03  0.52053566E-04
    6    1    0.14793463E-03  0.18509133E-05
    1    2    0.16960619E-03 -0.56189943E-04
    2    2    0.32932710E-02 -0.58960765E-03
    3    2    0.23647710E-01 -0.14071602E-02
    4    2   -0.11723621E-03 -0.59670458E-04
    5    2   -0.33216479E-02  0.90563261E-03
    6    2    0.51710612E-03 -0.73817370E-03
    1    3   -0.55442745E-04 -0.18418773E-03
    2    3   -0.84086918E-02  0.48475009E-02
    3    3    0.13010824E-01  0.56979674E-03
    4    3    0.76491259E-04 -0.44237573E-04
    5    3   -0.65107100E-02  0.60845924E-02
    6    3   -0.20603215E-01  0.11345071E-02
    1    4    0.82902630E-02 -0.44660903E-02
    2    4    0.84183630E-04 -0.58984088E-04
    3    4   -0.17502551E-03  0.49562113E-03
    4    4    0.46543147E-02 -0.41671615E-04
    5    4   -0.44195209E-04 -0.19687350E-04
    6    4   -0.74826907E-04  0.95682460E-05
    1    5   -0.95170950E-04  0.99395169E-05
    2    5    0.26645064E-02 -0.86398765E-03
    3    5   -0.27002016E-01 -0.22991069E-02
    4    5   -0.13485284E-03 -0.74255026E-04
    5    5    0.22160090E-02 -0.71683183E-03
    6    5    0.66273608E-03 -0.57265286E-03
    1    6   -0.76227888E-04 -0.19300229E-04
    2    6    0.16117656E-02  0.17541835E-02
    3    6    0.20389231E-01  0.33025738E-02
    4    6    0.98239238E-04  0.10636015E-04
    5    6   -0.29101770E-03  0.81940186E-04
    6    6    0.11423776E-02  0.73537449E-03

   -1   -3    0
    1    1   -0.43851248E-02 -0.37209778E-03
    2    1    0.35121207E-04 -0.15005013E-03
    3    1    0.31675523E-02  0.10636406E-02
    4    1   -0.20990479E-02 -0.10026920E-01
    5    1   -0.33927432E-04  0.78991130E-04
    6    1    0.31204666E-03 -0.12497342E-03
    1    2   -0.22872224E-03  0.69817714E-04
    2    2    0.72922398E-02 -0.12140262E-02
    3    2   -0.28414123E-01 -0.10330913E-01
    4    2    0.26839188E-03  0.44118935E-04
    5    2    0.42874926E-02  0.15214813E-03
    6    2    0.50774904E-02  0.73818056E-03
    1    3   -0.36084419E-03  0.28454514E-03
    2    3    0.17375015E-01 -0.70240140E-02
    3    3   -0.32844070E-01 -0.44950569E-03
    4    3   -0.69264104E-03 -0.14593741E-03
    5    3   -0.88773574E-02 -0.49764940E-02
    6    3    0.16357551E-01 -0.26777901E-03
    1    4   -0.21669667E-01  0.12917398E-01
    2    4   -0.76881680E-04  0.64046989E-04
    3    4    0.36689880E-03 -0.90955251E-03
    4    4    0.23772345E-01  0.37202582E-03
    5    4   -0.11695596E-03  0.19687022E-03
    6    4    0.54394508E-04  0.16340370E-03
    1    5    0.49839177E-03  0.19696419E-04
    2    5   -0.21665863E-02  0.67565488E-03
    3    5    0.31206034E-01 -0.95570455E-03
    4    5   -0.23417773E-03 -0.78541484E-04
    5    5   -0.17982003E-02  0.24560674E-02
    6    5   -0.52796954E-02  0.15421244E-02
    1    6   -0.18279006E-03  0.75804986E-04
    2    6    0.10351290E-02  0.85754173E-03
    3    6   -0.54055518E-01 -0.30277146E-02
    4    6    0.16848963E-03  0.57215356E-04
    5    6    0.79792073E-02  0.16809999E-03
    6    6    0.34508376E-02 -0.79246356E-03

   -1   -2    0
    1    1   -0.77278230E-01  0.73257395E-03
    2    1    0.25095166E-02  0.14861987E-02
    3    1   -0.82694879E-02 -0.42907784E-02
    4    1    0.21117986E+00  0.15240968E+00
    5    1   -0.51151737E-02 -0.71333117E-03
    6    1   -0.15938207E-02  0.34503336E-03
    1    2   -0.38754138E-03 -0.77548998E-05
    2    2    0.19896521E-02 -0.43043951E-02
    3    2   -0.39702219E-01  0.60356476E-02
    4    2   -0.44415312E-03 -0.16741450E-04
    5    2   -0.21773279E-01  0.21456729E-02
    6    2   -0.15426859E-01  0.19952710E-01
    1    3    0.81778733E-03 -0.11248582E-03
    2    3    0.30492102E-01  0.59035726E-02
    3    3    0.22143563E+00  0.94212421E-03
    4    3    0.23451399E-02  0.77763330E-03
    5    3    0.51530757E-01  0.31850890E-02
    6    3    0.27917609E-01 -0.16343876E-01
    1    4    0.30898751E-01 -0.16224320E-01
    2    4   -0.12689338E-02  0.71031943E-03
    3    4   -0.11883802E-02  0.26779016E-02
    4    4   -0.59144408E-01 -0.72944433E-03
    5    4    0.13520767E-02 -0.83014358E-03
    6    4   -0.12879266E-02  0.14867649E-03
    1    5   -0.53543456E-03 -0.30028633E-03
    2    5   -0.21130130E-01 -0.37376598E-02
    3    5   -0.87174261E-01 -0.13873602E-01
    4    5    0.23124726E-03  0.22695184E-04
    5    5    0.86287350E-02 -0.54216216E-02
    6    5   -0.14276562E-01  0.14624544E-01
    1    6    0.24934656E-03 -0.18953380E-03
    2    6   -0.83292760E-02 -0.64486292E-02
    3    6   -0.11775825E+00 -0.47501854E-01
    4    6   -0.76789823E-03 -0.20059030E-03
    5    6   -0.72959808E-02 -0.49517783E-02
    6    6   -0.12307254E-01  0.87807629E-02

   -1   -1    0
    1    1    0.13392228E+00 -0.12621031E-07
    2    1    0.31871160E-02  0.11873284E-02
    3    1   -0.22715595E-02 -0.25529922E-02
    4    1    0.10928805E+00  0.82466317E-01
    5    1   -0.20382118E-02 -0.32711325E-04
    6    1   -0.27926779E-02  0.69375698E-03
    1    2   -0.16451393E-02 -0.39551601E-03
    2    2   -0.17338671E+00 -0.31396326E-03
    3    2   -0.12659049E+01  0.25697548E+00
    4    2   -0.21828345E-02 -0.22435154E-03
    5    2    0.18349112E+00 -0.10453605E+00
    6    2    0.55777410E+00 -0.16639540E+00
    1    3   -0.63961099E-04 -0.12746990E-02
    2    3   -0.43700900E-02 -0.14863079E-01
    3    3   -0.83013594E+00 -0.28172485E-03
    4    3   -0.26642153E-02 -0.21535205E-02
    5    3   -0.69866054E-01 -0.13028933E-02
    6    3   -0.80119368E-01  0.34171026E-01
    1    4    0.10935724E+00 -0.82494445E-01
    2    4   -0.65416063E-02  0.32559467E-02
    3    4    0.11048979E-01 -0.69046563E-02
    4    4   -0.46170892E+00 -0.44471329E-04
    5    4    0.10011342E-01 -0.69983627E-02
    6    4    0.72420526E-02 -0.65015240E-02
    1    5   -0.10930452E-02  0.22437358E-03
    2    5   -0.44563895E+00 -0.63220894E-01
    3    5    0.46826285E-02  0.21741995E+00
    4    5    0.17424217E-01  0.10836615E-01
    5    5    0.50692228E+00 -0.55948303E-01
    6    5    0.10770146E+01 -0.14058394E+00
    1    6   -0.11127281E-03  0.23238922E-03
    2    6   -0.14194784E+00 -0.10718651E+00
    3    6    0.97543566E-01 -0.18152364E+00
    4    6    0.15755125E-02  0.28209855E-02
    5    6    0.20643842E+00  0.24889711E-01
    6    6    0.55421249E+00  0.56588475E-01

   -1    0    0
    1    1    0.13402758E+00 -0.21425483E-04
    2    1    0.11482538E-02  0.10458829E-02
    3    1   -0.59027628E-02 -0.13985372E-03
    4    1    0.21098762E+00  0.15233731E+00
    5    1   -0.53000724E-02 -0.64609184E-03
    6    1    0.53194702E-03  0.23644748E-03
    1    2   -0.19268711E-01  0.73107084E-02
    2    2    0.44506180E+00  0.39742347E-01
    3    2   -0.66784039E-01  0.23541661E+00
    4    2   -0.94792780E-02 -0.28036803E-02
    5    2   -0.18802284E+00  0.22586145E-01
    6    2   -0.15142999E+00 -0.21514468E-01
    1    3   -0.51573522E-02  0.14462520E-02
    2    3    0.80622452E-01 -0.14925660E-01
    3    3   -0.83142436E+00 -0.17223362E-02
    4    3   -0.53045082E-02 -0.15072555E-02
    5    3   -0.76031783E-01 -0.32462286E-02
    6    3   -0.72239287E-03  0.18817266E-01
    1    4   -0.13924530E+01  0.99496287E+00
    2    4   -0.25492219E-01  0.80415559E-02
    3    4    0.48846667E-02  0.26008036E-02
    4    4   -0.46157281E+00 -0.17634848E-04
    5    4    0.13700083E-01 -0.99234215E-02
    6    4    0.67041627E-02 -0.51165419E-02
    1    5   -0.18583862E-01  0.79010775E-02
    2    5   -0.11105611E+01 -0.16915386E+00
    3    5   -0.92664857E-01  0.22873903E+00
    4    5    0.24420307E-01  0.12026206E-01
    5    5    0.59065251E+00 -0.54235106E-01
    6    5    0.53521576E+00 -0.85440689E-01
    1    6   -0.15914949E-02 -0.17365163E-02
    2    6    0.44655595E+00  0.11746924E+00
    3    6    0.12287584E+01  0.11173188E-01
    4    6   -0.41568098E-02 -0.12688173E-02
    5    6   -0.18616945E+00  0.48445441E-01
    6    6   -0.14691924E+00  0.16254156E-01

   -1    1    0
    1    1   -0.77285569E-01  0.72724100E-03
    2    1   -0.41724568E-03 -0.80289526E-04
    3    1    0.29303994E-02  0.11713295E-02
    4    1   -0.20791693E-02 -0.10052879E-01
    5    1   -0.26393162E-03  0.14223657E-03
    6    1    0.22611742E-03  0.25808400E-04
    1    2    0.26892057E-02 -0.62783442E-03
    2    2   -0.11491882E-01  0.70478055E-02
    3    2    0.11704798E+00  0.12718306E-01
    4    2   -0.22325701E-03  0.14802746E-03
    5    2    0.10088008E-01  0.22226715E-02
    6    2   -0.85472134E-02 -0.24019664E-02
    1    3   -0.90493047E-03  0.13390460E-02
    2    3   -0.26700532E-01  0.11437020E-01
    3    3    0.22126046E+00  0.25014804E-02
    4    3    0.18971511E-02  0.14621543E-02
    5    3    0.57833113E-01  0.28646361E-02
    6    3   -0.26625442E-01  0.20608070E-02
    1    4    0.10920229E+00 -0.82670804E-01
    2    4    0.74009818E-03 -0.77210014E-03
    3    4   -0.53952002E-02  0.12367145E-02
    4    4   -0.59167182E-01 -0.71641334E-03
    5    4    0.16674911E-02 -0.76512006E-03
    6    4    0.45951056E-03 -0.47658535E-03
    1    5   -0.17319481E-02  0.32121562E-03
    2    5    0.22375809E-01 -0.13056861E-01
    3    5   -0.10190708E+00 -0.16594643E-01
    4    5   -0.35486440E-03 -0.13490576E-03
    5    5    0.37877883E-02 -0.47626418E-02
    6    5    0.21671207E-01 -0.24935342E-02
    1    6    0.17731143E-02 -0.37303428E-03
    2    6   -0.18513254E-01  0.10015012E-01
    3    6    0.47376164E-01  0.12111823E-01
    4    6    0.59458004E-03  0.19653943E-03
    5    6    0.21436261E-01  0.26360857E-02
    6    6    0.62205091E-02 -0.47974718E-02

   -1    2    0
    1    1   -0.43853946E-02 -0.38862073E-03
    2    1   -0.21168263E-03 -0.11061166E-03
    3    1   -0.75756753E-03 -0.43553059E-03
    4    1   -0.17920102E-01 -0.13440945E-01
    5    1    0.48601991E-03  0.67576647E-04
    6    1   -0.15472254E-03 -0.39075812E-04
    1    2    0.67123941E-03 -0.46464036E-04
    2    2    0.32669666E-02 -0.75564644E-03
    3    2    0.58496054E-01 -0.79309356E-02
    4    2    0.12941511E-03 -0.14277923E-03
    5    2   -0.84478452E-02  0.20654108E-02
    6    2    0.66562271E-03  0.54653169E-03
    1    3    0.67061010E-03 -0.41507208E-03
    2    3   -0.15582375E-01 -0.54067984E-02
    3    3   -0.32690665E-01 -0.19455793E-03
    4    3    0.24307889E-03 -0.16428880E-03
    5    3   -0.75970926E-02 -0.35941122E-02
    6    3   -0.15166492E-01  0.97175866E-02
    1    4    0.30868482E-01 -0.16215614E-01
    2    4    0.13841483E-03 -0.81969557E-04
    3    4    0.17326201E-04  0.17830607E-03
    4    4    0.23771370E-01  0.39139100E-03
    5    4   -0.22748867E-03  0.85960010E-04
    6    4    0.67036597E-04 -0.35783019E-04
    1    5   -0.58683103E-03  0.25170027E-03
    2    5    0.50971918E-02 -0.14838018E-03
    3    5    0.22982785E-01  0.90631298E-03
    4    5   -0.33935893E-03 -0.14620923E-03
    5    5   -0.12532782E-02  0.23215609E-02
    6    5    0.14075363E-02 -0.61538088E-03
    1    6    0.30082371E-03 -0.19676669E-03
    2    6    0.43313066E-02  0.27390938E-02
    3    6    0.28264003E-01  0.16135157E-01
    4    6   -0.84369884E-04 -0.19585987E-03
    5    6   -0.51411787E-02 -0.10723931E-02
    6    6    0.67790285E-02 -0.13741267E-02

   -1    3    0
    1    1    0.10906847E-01  0.51350841E-04
    2    1    0.12004529E-03  0.30587890E-04
    3    1    0.11924459E-03  0.88013183E-04
    4    1    0.31895980E-02  0.22644525E-02
    5    1   -0.88368305E-04 -0.37592353E-04
    6    1   -0.81385443E-04 -0.27289204E-05
    1    2   -0.16456850E-03 -0.53551702E-04
    2    2    0.11609216E-02  0.75166294E-03
    3    2   -0.23712830E-01  0.87623844E-03
    4    2   -0.44611347E-04  0.22610234E-04
    5    2    0.33995483E-03 -0.21306678E-03
    6    2    0.19342798E-02  0.82833830E-03
    1    3   -0.29730762E-03 -0.11804786E-03
    2    3    0.19845890E-01  0.38428030E-02
    3    3    0.12913789E-01  0.74562524E-03
    4    3   -0.40505155E-03 -0.26047522E-03
    5    3   -0.82252060E-02  0.43034509E-02
    6    3    0.66609873E-02 -0.60501282E-02
    1    4   -0.21654309E-01  0.12932308E-01
    2    4   -0.24822063E-04  0.55262481E-04
    3    4    0.39143733E-03 -0.24005469E-05
    4    4    0.46558845E-02 -0.53587042E-04
    5    4   -0.11427994E-03  0.46084897E-04
    6    4   -0.30225521E-04  0.38362887E-04
    1    5    0.45758976E-03 -0.15937092E-03
    2    5   -0.76916447E-03  0.52732476E-03
    3    5   -0.23002065E-01 -0.43541285E-02
    4    5   -0.15929407E-05  0.14103436E-04
    5    5    0.22029736E-02 -0.69400316E-03
    6    5   -0.26634049E-02  0.13386498E-02
    1    6    0.13867896E-03  0.58180043E-04
    2    6    0.10761646E-02 -0.27444126E-03
    3    6   -0.25139350E-01 -0.39837884E-02
    4    6   -0.26616072E-04 -0.14437191E-04
    5    6    0.32751880E-02  0.64919154E-04
    6    6    0.33833325E-02 -0.80104882E-03

    0   -4    0
    1    1    0.47288072E-02  0.59060785E-05
    2    1   -0.28820575E-03 -0.12020844E-03
    3    1    0.25020172E-03  0.20348454E-03
    4    1   -0.83535565E-02 -0.39746430E-02
    5    1    0.21373795E-04 -0.10356018E-03
    6    1   -0.15801679E-04 -0.30974574E-04
    1    2    0.61674499E-04 -0.18289249E-04
    2    2    0.15048009E-02  0.11328990E-02
    3    2   -0.13039357E-01  0.40757895E-02
    4    2   -0.11265583E-03 -0.57238462E-04
    5    2    0.20205749E-02 -0.36137978E-03
    6    2    0.16592013E-02 -0.47928751E-03
    1    3   -0.41298559E-03  0.11571929E-03
    2    3    0.13910345E-01 -0.34421802E-02
    3    3   -0.55948358E-02  0.26345157E-04
    4    3   -0.37695073E-03 -0.31578487E-03
    5    3   -0.11887377E-01 -0.15535735E-02
    6    3    0.12938740E-01  0.10630927E-02
    1    4    0.94142496E-02 -0.36479284E-02
    2    4    0.10603723E-04  0.43787952E-04
    3    4    0.49051533E-04 -0.45858583E-04
    4    4   -0.69882014E-02 -0.56153904E-05
    5    4    0.47279929E-04 -0.15542271E-04
    6    4   -0.86542967E-04  0.83331091E-04
    1    5   -0.67345396E-05 -0.76642417E-04
    2    5   -0.30500056E-02  0.83090048E-03
    3    5   -0.98768859E-02 -0.32275230E-03
    4    5    0.21524369E-04  0.55071335E-04
    5    5   -0.66896445E-04 -0.17003932E-04
    6    5   -0.20499558E-02 -0.79715832E-05
    1    6    0.55683608E-04 -0.26836632E-07
    2    6    0.37330582E-03  0.16449162E-03
    3    6   -0.12777015E-01 -0.58039717E-02
    4    6   -0.23382017E-04  0.68667163E-04
    5    6    0.25562921E-02  0.15904588E-02
    6    6    0.14219522E-02 -0.11425309E-02

    0   -3    0
    1    1    0.10750187E-01  0.33595731E-05
    2    1    0.39064155E-04  0.12591149E-03
    3    1   -0.31018181E-03 -0.42054966E-03
    4    1   -0.14359195E-02 -0.23743320E-03
    5    1   -0.27888617E-03 -0.11110825E-03
    6    1   -0.29762371E-03 -0.98362925E-04
    1    2    0.17271241E-03  0.39935237E-04
    2    2   -0.38140038E-03 -0.12023006E-02
    3    2   -0.14796108E-01  0.44724043E-02
    4    2   -0.21652570E-04 -0.24724850E-04
    5    2   -0.40798812E-02  0.77279428E-03
    6    2    0.30505199E-02 -0.90687503E-03
    1    3    0.41769572E-03 -0.55574998E-04
    2    3   -0.71788291E-02 -0.51814180E-02
    3    3    0.13726111E-01  0.14288452E-03
    4    3    0.22849227E-03  0.18844152E-03
    5    3    0.16039889E-01 -0.76426269E-02
    6    3    0.16254799E-01 -0.72026163E-04
    1    4   -0.83466568E-02  0.39817643E-02
    2    4    0.18197878E-03 -0.90326877E-04
    3    4    0.33323050E-03 -0.89579861E-04
    4    4    0.18450171E-01 -0.50066836E-05
    5    4   -0.17586905E-03  0.14619794E-03
    6    4    0.15434014E-03 -0.86783217E-04
    1    5    0.15618212E-03  0.20442612E-05
    2    5    0.16583509E-03 -0.12372276E-02
    3    5    0.16533200E-01  0.77286019E-02
    4    5   -0.13924586E-03 -0.17785728E-03
    5    5   -0.34748905E-02  0.53475821E-04
    6    5    0.37369708E-02 -0.56904944E-04
    1    6   -0.86778963E-05 -0.56023047E-04
    2    6   -0.11310832E-02 -0.33992102E-03
    3    6    0.87044308E-02 -0.32549975E-02
    4    6    0.52208190E-04  0.52088445E-04
    5    6    0.22034420E-03 -0.13027469E-02
    6    6   -0.53526665E-03  0.10075874E-02

    0   -2    0
    1    1   -0.11764052E+00 -0.40513855E-04
    2    1    0.16882197E-02  0.30473043E-03
    3    1   -0.16356256E-02 -0.60829879E-04
    4    1    0.21102254E+00  0.15225618E+00
    5    1   -0.34532043E-02  0.18194868E-03
    6    1   -0.92850094E-03  0.16167321E-02
    1    2   -0.20760436E-03 -0.12005369E-03
    2    2    0.30704176E-01 -0.29565752E-02
    3    2    0.46940979E-01  0.99074671E-02
    4    2   -0.66031594E-03  0.22186551E-04
    5    2   -0.26560039E-01 -0.43751042E-02
    6    2    0.65917138E-01 -0.18618955E-01
    1    3    0.62999083E-04 -0.40629231E-03
    2    3   -0.60799351E-01 -0.23245063E-02
    3    3    0.11819572E-01  0.70000970E-03
    4    3   -0.62652896E-04 -0.42095894E-03
    5    3   -0.51730174E-01  0.54319587E-02
    6    3   -0.48778250E-01  0.23625450E-01
    1    4   -0.14504108E-02  0.24635619E-03
    2    4   -0.72930085E-03  0.17719681E-04
    3    4   -0.15014709E-02  0.30778672E-03
    4    4   -0.48408944E-01  0.39111314E-04
    5    4    0.67148004E-03 -0.43548189E-03
    6    4   -0.87778091E-04 -0.15730114E-03
    1    5   -0.41838038E-03  0.17518377E-03
    2    5    0.13282969E-01  0.20872287E-02
    3    5   -0.59637063E-01 -0.44724339E-02
    4    5    0.48621374E-03  0.38933299E-03
    5    5   -0.23913566E-02  0.24949176E-03
    6    5    0.17852298E-01 -0.10241461E-01
    1    6    0.15923335E-04  0.53623557E-05
    2    6    0.31022111E-01  0.81760420E-02
    3    6    0.54461342E-01  0.10860734E-01
    4    6   -0.52236785E-03 -0.51188097E-03
    5    6   -0.18271586E-01 -0.26283015E-02
    6    6    0.30762218E-01  0.20084763E-02

    0   -1    0
    1    1    0.13371429E+00  0.67317757E-04
    2    1   -0.22426735E-01 -0.56223035E-02
    3    1    0.88494443E-02  0.48517537E-02
    4    1   -0.13925358E+01 -0.99482127E+00
    5    1    0.32933516E-01  0.37813296E-02
    6    1    0.10504788E-01 -0.50888787E-02
    1    2    0.82330231E-03 -0.42258695E-03
    2    2    0.50090973E+00 -0.44563538E-01
    3    2   -0.37763201E-01  0.65502585E-02
    4    2   -0.20752767E-01 -0.61555353E-02
    5    2   -0.57554479E+00  0.83845765E-01
    6    2    0.10893961E+01 -0.30283099E+00
    1    3   -0.31269832E-02  0.19910377E-02
    2    3   -0.81766652E-01 -0.44101202E-02
    3    3   -0.83148443E+00  0.27703330E-03
    4    3   -0.61331109E-03  0.18535066E-02
    5    3    0.12683617E+00 -0.35242947E-01
    6    3    0.43433664E-01 -0.14881894E-01
    1    4    0.21110188E+00 -0.15240730E+00
    2    4   -0.42123503E-02  0.30546048E-03
    3    4    0.19251184E-02  0.18680794E-02
    4    4   -0.46162358E+00  0.15585607E-04
    5    4    0.76249363E-02 -0.27969849E-02
    6    4   -0.38549977E-02 -0.87741753E-03
    1    5   -0.48440806E-02  0.65628444E-03
    2    5    0.12724583E+00 -0.39406609E-01
    3    5    0.11829705E+00  0.32313619E-01
    4    5    0.92870612E-03  0.23911903E-02
    5    5   -0.13766129E+00  0.99295015E-04
    6    5    0.41454632E+00 -0.41113002E-01
    1    6    0.69864093E-03  0.19815998E-03
    2    6    0.18447835E+00  0.45781642E-01
    3    6    0.92730605E-01  0.26097041E-01
    4    6   -0.64379082E-02 -0.50986911E-02
    5    6   -0.18508842E+00 -0.92130489E-01
    6    6    0.52597077E+00  0.44104306E-01

    0    0    0
    1    1    0.11890209E+01  0.68571001E-17
    2    1    0.40918981E-02 -0.81299530E-02
    3    1    0.80814700E-02  0.11404196E-02
    4    1   -0.13923358E+01 -0.99468931E+00
    5    1    0.44153690E-01  0.42869692E-02
    6    1   -0.68800311E-02  0.80953973E-03
    1    2    0.40918981E-02  0.81299530E-02
    2    2   -0.12731369E+02  0.37941720E-17
    3    2    0.58872763E-01 -0.54295495E-01
    4    2   -0.12571512E-01 -0.99247624E-02
    5    2   -0.31985477E+01  0.41500350E+00
    6    2    0.31679802E+01 -0.85040879E+00
    1    3    0.80814700E-02 -0.11404196E-02
    2    3    0.58872763E-01  0.54295495E-01
    3    3    0.46123560E+01  0.80090996E-17
    4    3    0.15122463E-01  0.51682039E-02
    5    3    0.67179347E-01  0.70629544E-01
    6    3   -0.43958798E-01 -0.44862028E-01
    1    4   -0.13923358E+01  0.99468931E+00
    2    4   -0.12571512E-01  0.99247624E-02
    3    4    0.15122463E-01 -0.51682039E-02
    4    4   -0.49468113E+01  0.14461853E-16
    5    4   -0.87641087E-01  0.50068141E-01
    6    4    0.42811345E-01 -0.24781059E-01
    1    5    0.44153690E-01 -0.42869692E-02
    2    5   -0.31985477E+01 -0.41500350E+00
    3    5    0.67179347E-01 -0.70629544E-01
    4    5   -0.87641087E-01 -0.50068141E-01
    5    5   -0.12086833E+02  0.16546796E-16
    6    5    0.29387465E+01 -0.39306821E+00
    1    6   -0.68800311E-02 -0.80953973E-03
    2    6    0.31679802E+01  0.85040879E+00
    3    6   -0.43958798E-01  0.44862028E-01
    4    6    0.42811345E-01  0.24781059E-01
    5    6    0.29387465E+01  0.39306821E+00
    6    6   -0.12189321E+02  0.19431423E-17

    0    1    0
    1    1    0.13371429E+00 -0.67317757E-04
    2    1    0.82330231E-03  0.42258695E-03
    3    1   -0.31269832E-02 -0.19910377E-02
    4    1    0.21110188E+00  0.15240730E+00
    5    1   -0.48440806E-02 -0.65628444E-03
    6    1    0.69864093E-03 -0.19815998E-03
    1    2   -0.22426735E-01  0.56223035E-02
    2    2    0.50090973E+00  0.44563538E-01
    3    2   -0.81766652E-01  0.44101202E-02
    4    2   -0.42123503E-02 -0.30546048E-03
    5    2    0.12724583E+00  0.39406609E-01
    6    2    0.18447835E+00 -0.45781642E-01
    1    3    0.88494443E-02 -0.48517537E-02
    2    3   -0.37763201E-01 -0.65502585E-02
    3    3   -0.83148443E+00 -0.27703330E-03
    4    3    0.19251184E-02 -0.18680794E-02
    5    3    0.11829705E+00 -0.32313619E-01
    6    3    0.92730605E-01 -0.26097041E-01
    1    4   -0.13925358E+01  0.99482127E+00
    2    4   -0.20752767E-01  0.61555353E-02
    3    4   -0.61331109E-03 -0.18535066E-02
    4    4   -0.46162358E+00 -0.15585607E-04
    5    4    0.92870612E-03 -0.23911903E-02
    6    4   -0.64379082E-02  0.50986911E-02
    1    5    0.32933516E-01 -0.37813296E-02
    2    5   -0.57554479E+00 -0.83845765E-01
    3    5    0.12683617E+00  0.35242947E-01
    4    5    0.76249363E-02  0.27969849E-02
    5    5   -0.13766129E+00 -0.99295015E-04
    6    5   -0.18508842E+00  0.92130489E-01
    1    6    0.10504788E-01  0.50888787E-02
    2    6    0.10893961E+01  0.30283099E+00
    3    6    0.43433664E-01  0.14881894E-01
    4    6   -0.38549977E-02  0.87741753E-03
    5    6    0.41454632E+00  0.41113002E-01
    6    6    0.52597077E+00 -0.44104306E-01

    0    2    0
    1    1   -0.11764052E+00  0.40513855E-04
    2    1   -0.20760436E-03  0.12005369E-03
    3    1    0.62999083E-04  0.40629231E-03
    4    1   -0.14504108E-02 -0.24635619E-03
    5    1   -0.41838038E-03 -0.17518377E-03
    6    1    0.15923335E-04 -0.53623557E-05
    1    2    0.16882197E-02 -0.30473043E-03
    2    2    0.30704176E-01  0.29565752E-02
    3    2   -0.60799351E-01  0.23245063E-02
    4    2   -0.72930085E-03 -0.17719681E-04
    5    2    0.13282969E-01 -0.20872287E-02
    6    2    0.31022111E-01 -0.81760420E-02
    1    3   -0.16356256E-02  0.60829879E-04
    2    3    0.46940979E-01 -0.99074671E-02
    3    3    0.11819572E-01 -0.70000970E-03
    4    3   -0.15014709E-02 -0.30778672E-03
    5    3   -0.59637063E-01  0.44724339E-02
    6    3    0.54461342E-01 -0.10860734E-01
    1    4    0.21102254E+00 -0.15225618E+00
    2    4   -0.66031594E-03 -0.22186551E-04
    3    4   -0.62652896E-04  0.42095894E-03
    4    4   -0.48408944E-01 -0.39111314E-04
    5    4    0.48621374E-03 -0.38933299E-03
    6    4   -0.52236785E-03  0.51188097E-03
    1    5   -0.34532043E-02 -0.18194868E-03
    2    5   -0.26560039E-01  0.43751042E-02
    3    5   -0.51730174E-01 -0.54319587E-02
    4    5    0.67148004E-03  0.43548189E-03
    5    5   -0.23913566E-02 -0.24949176E-03
    6    5   -0.18271586E-01  0.26283015E-02
    1    6   -0.92850094E-03 -0.16167321E-02
    2    6    0.65917138E-01  0.18618955E-01
    3    6   -0.48778250E-01 -0.23625450E-01
    4    6   -0.87778091E-04  0.15730114E-03
    5    6    0.17852298E-01  0.10241461E-01
    6    6    0.30762218E-01 -0.20084763E-02

    0    3    0
    1    1    0.10750187E-01 -0.33595731E-05
    2    1    0.17271241E-03 -0.39935237E-04
    3    1    0.41769572E-03  0.55574998E-04
    4    1   -0.83466568E-02 -0.39817643E-02
    5    1    0.15618212E-03 -0.20442612E-05
    6    1   -0.86778963E-05  0.56023047E-04
    1    2    0.39064155E-04 -0.12591149E-03
    2    2   -0.38140038E-03  0.12023006E-02
    3    2   -0.71788291E-02  0.51814180E-02
    4    2    0.18197878E-03  0.90326877E-04
    5    2    0.16583509E-03  0.12372276E-02
    6    2   -0.11310832E-02  0.33992102E-03
    1    3   -0.31018181E-03  0.42054966E-03
    2    3   -0.14796108E-01 -0.44724043E-02
    3    3    0.13726111E-01 -0.14288452E-03
    4    3    0.33323050E-03  0.89579861E-04
    5    3    0.16533200E-01 -0.77286019E-02
    6    3    0.87044308E-02  0.32549975E-02
    1    4   -0.14359195E-02  0.23743320E-03
    2    4   -0.21652570E-04  0.24724850E-04
    3    4    0.22849227E-03 -0.18844152E-03
    4    4    0.18450171E-01  0.50066836E-05
    5    4   -0.13924586E-03  0.17785728E-03
    6    4    0.52208190E-04 -0.52088445E-04
    1    5   -0.27888617E-03  0.11110825E-03
    2    5   -0.40798812E-02 -0.77279428E-03
    3    5    0.16039889E-01  0.76426269E-02
    4    5   -0.17586905E-03 -0.14619794E-03
    5    5   -0.34748905E-02 -0.53475821E-04
    6    5    0.22034420E-03  0.13027469E-02
    1    6   -0.29762371E-03  0.98362925E-04
    2    6    0.30505199E-02  0.90687503E-03
    3    6    0.16254799E-01  0.72026163E-04
    4    6    0.15434014E-03  0.86783217E-04
    5    6    0.37369708E-02  0.56904944E-04
    6    6   -0.53526665E-03 -0.10075874E-02

    0    4    0
    1    1    0.47288072E-02 -0.59060785E-05
    2    1    0.61674499E-04  0.18289249E-04
    3    1   -0.41298559E-03 -0.11571929E-03
    4    1    0.94142496E-02  0.36479284E-02
    5    1   -0.67345396E-05  0.76642417E-04
    6    1    0.55683608E-04  0.26836632E-07
    1    2   -0.28820575E-03  0.12020844E-03
    2    2    0.15048009E-02 -0.11328990E-02
    3    2    0.13910345E-01  0.34421802E-02
    4    2    0.10603723E-04 -0.43787952E-04
    5    2   -0.30500056E-02 -0.83090048E-03
    6    2    0.37330582E-03 -0.16449162E-03
    1    3    0.25020172E-03 -0.20348454E-03
    2    3   -0.13039357E-01 -0.40757895E-02
    3    3   -0.55948358E-02 -0.26345157E-04
    4    3    0.49051533E-04  0.45858583E-04
    5    3   -0.98768859E-02  0.32275230E-03
    6    3   -0.12777015E-01  0.58039717E-02
    1    4   -0.83535565E-02  0.39746430E-02
    2    4   -0.11265583E-03  0.57238462E-04
    3    4   -0.37695073E-03  0.31578487E-03
    4    4   -0.69882014E-02  0.56153904E-05
    5    4    0.21524369E-04 -0.55071335E-04
    6    4   -0.23382017E-04 -0.68667163E-04
    1    5    0.21373795E-04  0.10356018E-03
    2    5    0.20205749E-02  0.36137978E-03
    3    5   -0.11887377E-01  0.15535735E-02
    4    5    0.47279929E-04  0.15542271E-04
    5    5   -0.66896445E-04  0.17003932E-04
    6    5    0.25562921E-02 -0.15904588E-02
    1    6   -0.15801679E-04  0.30974574E-04
    2    6    0.16592013E-02  0.47928751E-03
    3    6    0.12938740E-01 -0.10630927E-02
    4    6   -0.86542967E-04 -0.83331091E-04
    5    6   -0.20499558E-02  0.79715832E-05
    6    6    0.14219522E-02  0.11425309E-02

    1   -3    0
    1    1    0.10906847E-01 -0.51350841E-04
    2    1   -0.16456850E-03  0.53551702E-04
    3    1   -0.29730762E-03  0.11804786E-03
    4    1   -0.21654309E-01 -0.12932308E-01
    5    1    0.45758976E-03  0.15937092E-03
    6    1    0.13867896E-03 -0.58180043E-04
    1    2    0.12004529E-03 -0.30587890E-04
    2    2    0.11609216E-02 -0.75166294E-03
    3    2    0.19845890E-01 -0.38428030E-02
    4    2   -0.24822063E-04 -0.55262481E-04
    5    2   -0.76916447E-03 -0.52732476E-03
    6    2    0.10761646E-02  0.27444126E-03
    1    3    0.11924459E-03 -0.88013183E-04
    2    3   -0.23712830E-01 -0.87623844E-03
    3    3    0.12913789E-01 -0.74562524E-03
    4    3    0.39143733E-03  0.24005469E-05
    5    3   -0.23002065E-01  0.43541285E-02
    6    3   -0.25139350E-01  0.39837884E-02
    1    4    0.31895980E-02 -0.22644525E-02
    2    4   -0.44611347E-04 -0.22610234E-04
    3    4   -0.40505155E-03  0.26047522E-03
    4    4    0.46558845E-02  0.53587042E-04
    5    4   -0.15929407E-05 -0.14103436E-04
    6    4   -0.26616072E-04  0.14437191E-04
    1    5   -0.88368305E-04  0.37592353E-04
    2    5    0.33995483E-03  0.21306678E-03
    3    5   -0.82252060E-02 -0.43034509E-02
    4    5   -0.11427994E-03 -0.46084897E-04
    5    5    0.22029736E-02  0.69400316E-03
    6    5    0.32751880E-02 -0.64919154E-04
    1    6   -0.81385443E-04  0.27289204E-05
    2    6    0.19342798E-02 -0.82833830E-03
    3    6    0.66609873E-02  0.60501282E-02
    4    6   -0.30225521E-04 -0.38362887E-04
    5    6   -0.26634049E-02 -0.13386498E-02
    6    6    0.33833325E-02  0.80104882E-03

    1   -2    0
    1    1   -0.43853946E-02  0.38862073E-03
    2    1    0.67123941E-03  0.46464036E-04
    3    1    0.67061010E-03  0.41507208E-03
    4    1    0.30868482E-01  0.16215614E-01
    5    1   -0.58683103E-03 -0.25170027E-03
    6    1    0.30082371E-03  0.19676669E-03
    1    2   -0.21168263E-03  0.11061166E-03
    2    2    0.32669666E-02  0.75564644E-03
    3    2   -0.15582375E-01  0.54067984E-02
    4    2    0.13841483E-03  0.81969557E-04
    5    2    0.50971918E-02  0.14838018E-03
    6    2    0.43313066E-02 -0.27390938E-02
    1    3   -0.75756753E-03  0.43553059E-03
    2    3    0.58496054E-01  0.79309356E-02
    3    3   -0.32690665E-01  0.19455793E-03
    4    3    0.17326201E-04 -0.17830607E-03
    5    3    0.22982785E-01 -0.90631298E-03
    6    3    0.28264003E-01 -0.16135157E-01
    1    4   -0.17920102E-01  0.13440945E-01
    2    4    0.12941511E-03  0.14277923E-03
    3    4    0.24307889E-03  0.16428880E-03
    4    4    0.23771370E-01 -0.39139100E-03
    5    4   -0.33935893E-03  0.14620923E-03
    6    4   -0.84369884E-04  0.19585987E-03
    1    5    0.48601991E-03 -0.67576647E-04
    2    5   -0.84478452E-02 -0.20654108E-02
    3    5   -0.75970926E-02  0.35941122E-02
    4    5   -0.22748867E-03 -0.85960010E-04
    5    5   -0.12532782E-02 -0.23215609E-02
    6    5   -0.51411787E-02  0.10723931E-02
    1    6   -0.15472254E-03  0.39075812E-04
    2    6    0.66562271E-03 -0.54653169E-03
    3    6   -0.15166492E-01 -0.97175866E-02
    4    6    0.67036597E-04  0.35783019E-04
    5    6    0.14075363E-02  0.61538088E-03
    6    6    0.67790285E-02  0.13741267E-02

    1   -1    0
    1    1   -0.77285569E-01 -0.72724100E-03
    2    1    0.26892057E-02  0.62783442E-03
    3    1   -0.90493047E-03 -0.13390460E-02
    4    1    0.10920229E+00  0.82670804E-01
    5    1   -0.17319481E-02 -0.32121562E-03
    6    1    0.17731143E-02  0.37303428E-03
    1    2   -0.41724568E-03  0.80289526E-04
    2    2   -0.11491882E-01 -0.70478055E-02
    3    2   -0.26700532E-01 -0.11437020E-01
    4    2    0.74009818E-03  0.77210014E-03
    5    2    0.22375809E-01  0.13056861E-01
    6    2   -0.18513254E-01 -0.10015012E-01
    1    3    0.29303994E-02 -0.11713295E-02
    2    3    0.11704798E+00 -0.12718306E-01
    3    3    0.22126046E+00 -0.25014804E-02
[...]
    5    6    0.46574404E-02  0.14724515E-02  0.72195528E-02 -0.27852791E-02  0.14778720E-05  0.22284145E-04
    6    6    0.15748634E-03  0.52309503E-03  0.14000951E-02 -0.43763184E-03 -0.26565917E-05  0.16006477E-04

    4    4    0
    1    1   -0.26882392E-02 -0.65393878E-03  0.15517238E-02 -0.11346852E-02 -0.32704419E-06  0.43291831E-05
    2    1    0.14876423E-04  0.62684071E-04 -0.28118303E-04 -0.47887391E-04 -0.86569504E-03 -0.27804882E-03
    3    1    0.13750099E-01  0.94994380E-02 -0.30076574E-02 -0.19761681E-02  0.12801619E-01  0.13559380E-02
    4    1   -0.24854687E-02  0.36399662E-02 -0.37151876E-02 -0.16225365E-02  0.55064011E-05 -0.18787707E-05
    5    1   -0.70197454E-04 -0.11828230E-03 -0.12918782E-04 -0.31578427E-04  0.13194104E-02 -0.24018364E-03
    6    1   -0.61153226E-04 -0.97589335E-05 -0.37147776E-04 -0.26422940E-04  0.23850285E-03  0.76129003E-04
    1    2   -0.11629870E-04  0.38673322E-04 -0.46308524E-04  0.63986900E-05 -0.96628454E-03  0.29813735E-03
    2    2    0.37563251E-03 -0.30915548E-03 -0.41808055E-03  0.45523552E-04 -0.83777868E-05  0.20665184E-04
    3    2   -0.69985541E-02 -0.30625540E-02 -0.50156083E-02  0.20837947E-02  0.38599568E-02  0.22085095E-02
    4    2    0.12090715E-03  0.25490877E-04  0.17912749E-03  0.28226016E-04  0.96803076E-04 -0.97242690E-05
    5    2    0.29493547E-02 -0.34453322E-02  0.53199525E-02 -0.10473227E-02 -0.77139004E-05 -0.65844655E-05
    6    2   -0.26381605E-02 -0.12167861E-02 -0.75337352E-02  0.25031635E-02 -0.15984788E-04  0.15115119E-04
    1    3    0.51613498E-02 -0.35479025E-02  0.93241771E-02 -0.64615416E-02 -0.24530364E-01  0.24237959E-02
    2    3    0.39852136E-02  0.12142960E-02 -0.10614668E-01  0.12178442E-02 -0.12154178E-02  0.65059570E-03
    3    3    0.84174234E-02  0.61919365E-03 -0.48525892E-02  0.11233655E-02  0.41700273E-05 -0.32293033E-04
    4    3    0.36690745E-02  0.11679013E-03  0.65006701E-02  0.24057598E-03 -0.84774656E-03 -0.58745524E-03
    5    3    0.13682383E-04  0.17454250E-02  0.72022025E-02  0.56099996E-03 -0.24879735E-02  0.20389394E-02
    6    3    0.19498740E-02 -0.72432087E-03  0.34085483E-02 -0.29970340E-02 -0.31887258E-02  0.32887569E-02
    1    4   -0.21250036E-02  0.26738383E-02 -0.88778235E-02  0.60609847E-02  0.17152446E-04 -0.19047138E-04
    2    4    0.12794498E-04 -0.14303653E-04  0.16052810E-03 -0.55857446E-04 -0.34703669E-04  0.58101978E-04
    3    4   -0.63003093E-02  0.32271001E-04  0.73674247E-02 -0.26208343E-03 -0.35165312E-02  0.16752301E-02
    4    4   -0.20288417E-03  0.70566264E-03  0.11773021E-03  0.12165974E-02  0.32159862E-05  0.83909597E-05
    5    4    0.23760674E-04 -0.22718383E-05 -0.55174351E-04  0.35318186E-04 -0.80019286E-03  0.65863474E-03
    6    4    0.68501038E-04  0.94963164E-05 -0.33848025E-04 -0.44785981E-04 -0.87862360E-03  0.66736830E-03
    1    5    0.35717034E-04  0.14402408E-04  0.13162433E-03  0.14235151E-04 -0.96238315E-04  0.11977250E-03
    2    5    0.22982695E-02 -0.18729389E-02  0.63399383E-02  0.50175553E-03  0.21022987E-05 -0.11828777E-04
    3    5    0.51449211E-02 -0.13663412E-02  0.64071637E-02  0.28431038E-02 -0.12134569E-02 -0.88048280E-03
    4    5   -0.64038161E-04 -0.39786383E-04 -0.18699028E-03 -0.43547732E-04  0.90611305E-03  0.51642210E-03
    5    5    0.73177240E-03  0.30844576E-02 -0.56777976E-03 -0.14541052E-02  0.28148611E-04 -0.16504036E-04
    6    5    0.27566144E-02  0.20845948E-02 -0.22405364E-02 -0.16884705E-02  0.29955230E-04 -0.26503667E-04
    1    6   -0.22008971E-04  0.11639697E-04 -0.28185190E-04  0.21380398E-04 -0.12285238E-02 -0.37303129E-03
    2    6   -0.25025404E-02 -0.20662639E-02 -0.10308252E-01 -0.22710855E-02 -0.11961837E-04  0.82512368E-05
    3    6   -0.20968093E-03  0.75202257E-03 -0.26223795E-02 -0.27097589E-02  0.23512363E-02  0.23578382E-02
    4    6   -0.38360760E-04  0.51869414E-04 -0.65760559E-05 -0.33848568E-04  0.74219886E-03  0.78520419E-03
    5    6    0.14299740E-03  0.22693746E-02 -0.47626205E-02 -0.13216910E-02  0.83553324E-05 -0.21805731E-04
    6    6    0.11429441E-02 -0.25499936E-02 -0.18896111E-03  0.17344433E-02 -0.11657031E-05 -0.97977038E-05

    4    5    0
    1    1   -0.32893590E-02  0.32711456E-03  0.19003960E-02 -0.18842561E-03  0.47549553E-04 -0.68293771E-06
    2    1    0.21082878E-04  0.31075332E-04  0.18161295E-04  0.33560132E-04  0.89153210E-04 -0.14832278E-03
    3    1   -0.41210473E-02 -0.28469487E-02  0.12064398E-01  0.84071207E-02  0.54166019E-02  0.80816140E-03
    4    1   -0.31375303E-02  0.87026698E-04  0.34432835E-02  0.21430651E-02  0.10398474E-04  0.59857225E-05
    5    1    0.26135959E-04 -0.80230806E-05 -0.10975806E-03 -0.31595171E-04  0.47618639E-04 -0.11589072E-03
    6    1    0.58131930E-04  0.53776876E-04 -0.27763385E-05  0.28607593E-05 -0.36186488E-05  0.12712189E-03
    1    2   -0.43131574E-04  0.44500376E-04 -0.81836025E-04  0.63201334E-04  0.37480257E-03 -0.73787736E-04
    2    2    0.78291324E-03 -0.46904150E-02 -0.48248001E-03  0.26073923E-02  0.19592389E-04 -0.21789867E-05
    3    2    0.19207225E-02  0.11665151E-02  0.10558693E-01 -0.41458359E-03 -0.26636552E-02 -0.15661846E-02
    4    2   -0.87999013E-04  0.17173723E-03  0.55179486E-04 -0.55546472E-04 -0.88872785E-03 -0.22784294E-03
    5    2   -0.13040609E-02  0.11260128E-01  0.39747407E-02 -0.66084178E-02  0.22755087E-04 -0.55499979E-05
    6    2    0.80715604E-03 -0.12235655E-01 -0.19189270E-02  0.58792247E-02  0.19319498E-04 -0.43038147E-05
    1    3   -0.68599542E-02  0.46183144E-02 -0.73886089E-02  0.50286893E-02  0.18618789E-01 -0.22001592E-02
    2    3    0.40573549E-04  0.84683204E-03  0.46004228E-02 -0.19866414E-02 -0.27179653E-02  0.15437144E-02
    3    3   -0.14835706E-01  0.40103259E-03  0.85690301E-02 -0.23542681E-03 -0.41466909E-04  0.21140225E-04
    4    3   -0.36499278E-03 -0.21198797E-04 -0.48004956E-02 -0.22168516E-04 -0.62692035E-02 -0.33517990E-02
    5    3   -0.14968218E-02 -0.51634013E-03  0.29211249E-02  0.17011168E-02  0.38516983E-02 -0.29244782E-02
    6    3    0.73064799E-03  0.23313503E-03 -0.18372926E-02  0.23157957E-02  0.80420203E-03 -0.93216624E-03
    1    4   -0.57525335E-03  0.26894922E-03 -0.10205352E-02  0.11638488E-03 -0.79210173E-06  0.65496075E-05
    2    4    0.95381485E-04  0.17550579E-03  0.41445759E-04 -0.11366352E-03  0.12594605E-02 -0.61357497E-03
    3    4    0.85763224E-02 -0.13524481E-03  0.17796916E-02 -0.97304760E-04  0.30995763E-02 -0.18105811E-02
    4    4    0.11057098E-02  0.54296980E-02 -0.63795781E-03 -0.31350530E-02  0.11773893E-04 -0.27575626E-05
    5    4   -0.85139624E-04  0.30138042E-04  0.21515097E-05 -0.40063538E-04  0.82875732E-04 -0.10279487E-03
    6    4   -0.53076169E-04 -0.11450841E-03  0.55972432E-04  0.10434404E-03 -0.11584745E-03  0.17268465E-03
    1    5    0.10957664E-03 -0.61733067E-04  0.16030289E-03 -0.15890333E-05 -0.26102343E-03  0.11503583E-03
    2    5   -0.26365468E-02  0.10564482E-01  0.46755475E-02 -0.68982655E-02 -0.13105576E-04 -0.19927455E-05
    3    5   -0.24559448E-02  0.66383562E-03  0.30417106E-02 -0.11521122E-02  0.36594161E-02  0.29171604E-02
    4    5   -0.98830805E-04 -0.38301812E-04  0.35680365E-04 -0.23416590E-04 -0.22932436E-03  0.18955613E-04
    5    5    0.22994322E-02 -0.39782952E-02 -0.18261235E-02  0.22400827E-02 -0.25761359E-04 -0.16216585E-05
    6    5    0.29000733E-02 -0.10871593E-01 -0.22851906E-02  0.74041644E-02 -0.13499705E-04 -0.26955379E-05
    1    6    0.47027240E-05  0.38786868E-04 -0.14054733E-06  0.16496027E-04  0.26339233E-03 -0.81554123E-04
    2    6    0.70581834E-02 -0.10381767E-01 -0.27973583E-02  0.41733320E-02  0.29477935E-04  0.46900067E-05
    3    6    0.43952280E-02 -0.10119314E-02  0.90338910E-02  0.26541061E-02  0.82591198E-03  0.92435030E-03
    4    6    0.11575531E-03 -0.45499830E-04 -0.14479513E-03  0.71837307E-05  0.26859569E-03  0.40980662E-04
    5    6    0.60904359E-02 -0.10221366E-01 -0.57185219E-02  0.47287942E-02 -0.22162445E-04  0.26254086E-05
    6    6    0.30064072E-02 -0.39605793E-02 -0.11524706E-02  0.24644069E-02  0.10864012E-04  0.24663433E-06

    5    1    0
    1    1    0.11348164E-05  0.46083134E-06 -0.37911101E-02 -0.37943425E-03  0.94598894E-04 -0.22668891E-04
    2    1    0.21647847E-04  0.22466115E-04  0.48761480E-04  0.41715019E-05 -0.13065527E-02 -0.57608202E-03
    3    1   -0.40896436E-02 -0.28674317E-02  0.12222284E-01  0.83217066E-02  0.12429423E-01  0.13361597E-02
    4    1   -0.67878379E-02 -0.53816321E-02  0.69680009E-02  0.43861961E-03  0.15683043E-04 -0.20371314E-04
    5    1    0.22803863E-04  0.63529119E-04 -0.17959437E-03 -0.10879191E-04  0.45615843E-03 -0.37237932E-03
    6    1    0.60001636E-04  0.37698481E-04  0.20205932E-04  0.19009987E-04  0.25713483E-03  0.37986181E-03
    1    2    0.25265828E-04 -0.63130618E-05  0.61384327E-05 -0.28514056E-04 -0.11736906E-03  0.15004912E-03
    2    2    0.58094237E-03 -0.12121088E-03  0.37248938E-02  0.44616960E-02  0.14207197E-04 -0.19019641E-05
    3    2   -0.31251754E-02 -0.33538152E-02  0.67205213E-02  0.42883684E-02 -0.27260984E-02 -0.15538950E-02
    4    2    0.31931411E-04  0.28272600E-04  0.70898228E-04  0.95724841E-04  0.18395033E-03  0.15816843E-03
    5    2    0.31381926E-02 -0.88779367E-03  0.69656928E-02  0.11241149E-01  0.25099502E-06 -0.52191893E-06
    6    2   -0.27886296E-02  0.11953349E-02 -0.97922349E-02 -0.96772896E-02  0.29703593E-04 -0.49102992E-05
    1    3    0.40469142E-02 -0.29215192E-02  0.45888527E-02 -0.31681881E-02  0.12912590E-01 -0.14221453E-02
    2    3    0.11303394E-01 -0.98088477E-03  0.11228763E-03  0.33927593E-02 -0.26477313E-02  0.15683813E-02
    3    3    0.73627521E-06 -0.10314227E-04 -0.17236768E-01 -0.50491893E-03 -0.10820294E-03  0.73890665E-04
    4    3   -0.91689347E-02 -0.36082551E-03  0.28996524E-03  0.81954536E-04  0.30954804E-02  0.17963047E-02
    5    3   -0.17225842E-02 -0.19828424E-02  0.40218381E-03  0.20157538E-02  0.36669578E-02 -0.29220151E-02
    6    3    0.48394791E-02 -0.70315445E-03 -0.63656911E-03 -0.35330475E-02  0.82637167E-03 -0.90387309E-03
    1    4    0.96072599E-02 -0.70941767E-02  0.25423655E-02 -0.62294772E-03  0.59192745E-05  0.16396210E-04
    2    4   -0.11426671E-04  0.31518336E-04  0.15072234E-03  0.55031692E-04 -0.29002879E-03 -0.63102827E-04
    3    4    0.84264530E-02 -0.12436272E-03  0.18912378E-02 -0.12804061E-04 -0.62801178E-02  0.33478133E-02
    4    4    0.17233978E-06  0.53818958E-06  0.12784235E-02 -0.62702747E-02  0.21028511E-04 -0.11683994E-04
    5    4    0.45744987E-04 -0.51321303E-04  0.16118408E-03  0.30701689E-03 -0.28647295E-03  0.29233237E-05
    6    4   -0.18715796E-04 -0.19994224E-04 -0.11173518E-03 -0.11092097E-03  0.78077469E-03 -0.42163997E-03
    1    5   -0.11300926E-03  0.32659759E-04 -0.50705835E-04 -0.21156133E-04  0.12432400E-02  0.26175525E-03
    2    5   -0.76968447E-03  0.43532829E-03  0.37437127E-02  0.12678924E-01  0.14197913E-04  0.37709172E-05
    3    5   -0.26397265E-02 -0.12414395E-02  0.77672175E-02  0.44303246E-02  0.38461461E-02  0.29287403E-02
    4    5    0.12349091E-03  0.20160862E-04 -0.14194831E-03  0.30306634E-03  0.17093696E-03  0.14872593E-03
    5    5   -0.50107018E-03  0.18697017E-03  0.31597116E-02  0.47584432E-02 -0.25805502E-04  0.11299288E-05
    6    5    0.51739542E-03 -0.65987368E-03 -0.75027367E-02 -0.98170640E-02 -0.31249647E-04 -0.23287034E-05
    1    6    0.21400401E-04  0.49589965E-04  0.22984489E-04  0.40887568E-04  0.97344332E-03 -0.71145954E-04
    2    6   -0.40227314E-02 -0.13608197E-02 -0.91551575E-03 -0.16082320E-01  0.16869377E-04  0.11509172E-05
    3    6    0.40833680E-02  0.38989030E-02  0.18311818E-02 -0.42771265E-02  0.81504339E-03  0.91918523E-03
    4    6    0.26837966E-04  0.20365668E-04  0.10134670E-03 -0.19929534E-03 -0.10436973E-02 -0.88562310E-03
    5    6   -0.13274627E-02 -0.22383295E-03 -0.25806192E-02 -0.14256584E-01  0.12767232E-05  0.45571128E-05
    6    6    0.80528281E-05 -0.20368423E-04  0.59908393E-03  0.53785982E-02  0.84650905E-05 -0.22275399E-05

    5    2    0
    1    1    0.39557480E-03  0.95924351E-04  0.27034044E-03  0.23895975E-03 -0.22839465E-04  0.47952363E-05
    2    1   -0.11265369E-03 -0.12041785E-03 -0.12535831E-04 -0.23578253E-04 -0.13935991E-02 -0.25541958E-03
    3    1   -0.97833914E-02 -0.66786804E-02 -0.92623617E-02 -0.63669368E-02 -0.36943245E-01 -0.41597446E-02
    4    1   -0.53917304E-02 -0.60427139E-02 -0.25728035E-02 -0.20351215E-02 -0.48699107E-04 -0.32292657E-04
    5    1    0.13961683E-03  0.59050458E-04  0.33412641E-04  0.51014695E-04  0.24784521E-02 -0.45856634E-03
    6    1    0.75171266E-05 -0.79419898E-05  0.56136866E-04  0.34636019E-04  0.15608202E-02 -0.17481646E-03
    1    2    0.23751032E-04  0.18402996E-04  0.64217958E-04  0.27776723E-04  0.35529908E-04  0.92707944E-04
    2    2   -0.18544918E-02 -0.52159761E-03 -0.67060392E-03 -0.12376980E-02 -0.67526244E-05 -0.21898962E-04
    3    2   -0.37491957E-02  0.22153652E-02 -0.29597166E-03 -0.13241952E-04 -0.11795211E-02 -0.66499841E-03
    4    2   -0.14212117E-04 -0.71329138E-04 -0.42495694E-04 -0.46091692E-04 -0.35318394E-03 -0.41416143E-03
    5    2   -0.54744566E-02 -0.13410559E-02 -0.30014496E-02 -0.69964187E-03  0.55309325E-05  0.11835120E-04
    6    2    0.58860830E-02 -0.12786365E-02  0.15873955E-03  0.63905024E-03 -0.15926523E-04 -0.11525419E-04
    1    3   -0.10479966E-01  0.73022438E-02 -0.21016117E-02  0.14541934E-02  0.53633286E-02 -0.75886836E-03
    2    3    0.33819132E-03  0.30299995E-02  0.27955709E-02 -0.16200064E-03  0.37919470E-02 -0.22354150E-02
    3    3   -0.10913090E-02  0.20219081E-04  0.34085273E-02 -0.11683357E-03 -0.37744811E-04 -0.82263012E-05
    4    3    0.35153679E-02  0.29211117E-03  0.10100085E-02  0.57398891E-04 -0.73685243E-02 -0.38853157E-02
    5    3    0.48477260E-02  0.32315946E-02  0.54260586E-02  0.28049537E-03 -0.10378464E-02  0.89445873E-03
    6    3    0.13528604E-03 -0.16889021E-02 -0.11663267E-02 -0.37028768E-03  0.23940062E-02 -0.23894971E-02
    1    4   -0.25925626E-03  0.29208723E-03  0.39029271E-02 -0.91458598E-03  0.45313619E-04  0.17336417E-05
    2    4   -0.37140169E-04 -0.20686201E-04 -0.25373334E-04 -0.15250585E-04  0.67703300E-03 -0.36016055E-04
    3    4   -0.20638616E-02  0.14808127E-04 -0.90482244E-02  0.20606607E-03  0.48528161E-02 -0.27568113E-02
    4    4    0.75265795E-04 -0.18240722E-03  0.91331754E-03 -0.85285761E-04  0.55161590E-05  0.13139155E-05
    5    4    0.39550834E-04  0.23671203E-04  0.58629160E-04 -0.44012818E-04  0.51199453E-03  0.18896625E-04
    6    4    0.34551923E-04 -0.14009099E-04  0.41943721E-04 -0.10436121E-04 -0.43281559E-04 -0.43817331E-03
    1    5    0.37293906E-04 -0.32281173E-04 -0.50254045E-04 -0.15571914E-04  0.35233394E-04  0.12045911E-03
    2    5   -0.32583834E-02 -0.18866580E-02 -0.10760985E-02 -0.57026407E-03 -0.17859246E-04  0.42383980E-05
    3    5    0.63832735E-03  0.24208884E-02 -0.50769508E-02 -0.14646715E-02 -0.26426163E-02 -0.20200336E-02
    4    5   -0.39598441E-04 -0.33601191E-05 -0.48830133E-05 -0.39696519E-04 -0.40853605E-03 -0.54591432E-03
    5    5    0.82202091E-03  0.39778462E-03  0.14219703E-02  0.56544672E-03  0.28865758E-04  0.12610180E-04
    6    5    0.24048399E-02 -0.33680720E-03  0.13880238E-02  0.12805788E-02  0.19529903E-04  0.26556117E-04
    1    6   -0.28529839E-05 -0.32019043E-04 -0.20021593E-04 -0.34118037E-04 -0.35928122E-04 -0.14840394E-03
    2    6    0.44847159E-02  0.11226662E-02  0.96586395E-03  0.40611356E-03 -0.91327641E-05 -0.11301399E-04
    3    6   -0.40062878E-02 -0.33470403E-02 -0.11942629E-02  0.43790329E-03 -0.32044448E-02 -0.32968522E-02
    4    6    0.53153390E-04  0.41557460E-06  0.14738489E-04  0.38201209E-04 -0.35959921E-04  0.16039761E-03
    5    6    0.38333510E-02  0.21445328E-03  0.32715206E-02  0.22679466E-02  0.69125800E-05  0.23378758E-04
    6    6    0.11641138E-02 -0.67520864E-04 -0.11201713E-03  0.89491198E-03 -0.14549848E-05  0.12651028E-04

    5    3    0
    1    1    0.43353344E-03  0.26094066E-03  0.20486282E-03 -0.35795270E-04 -0.47339784E-04  0.92215316E-05
    2    1    0.48993087E-06  0.38376629E-04 -0.94942189E-04 -0.62439107E-04 -0.15048217E-03 -0.40776838E-03
    3    1    0.13823724E-01  0.95494331E-02 -0.29614553E-02 -0.19902280E-02  0.12331626E-01  0.12844554E-02
    4    1    0.63159600E-03 -0.99156570E-03 -0.81357040E-02 -0.46046215E-02 -0.56506375E-05  0.20551443E-04
    5    1   -0.88126135E-04 -0.32165407E-04  0.11952907E-03 -0.27174909E-04  0.35873830E-03 -0.37561304E-03
    6    1   -0.85836297E-04 -0.42677858E-04 -0.76130581E-04 -0.36760719E-04  0.14018170E-02  0.20515577E-03
    1    2    0.24733741E-04 -0.37364484E-04  0.34794955E-04 -0.29693717E-04 -0.75255624E-03  0.25636311E-03
    2    2    0.35810299E-03  0.39479220E-03  0.11397363E-02 -0.45485005E-03 -0.78822212E-05  0.22895012E-04
    3    2    0.28257168E-02  0.58003383E-03  0.37156824E-02  0.23647171E-02  0.39240437E-02  0.22009059E-02
    4    2   -0.59642581E-04 -0.89307207E-04 -0.91019444E-04 -0.25209321E-04 -0.58113584E-04 -0.23079398E-03
    5    2   -0.53671420E-02 -0.88280411E-03 -0.19191590E-02  0.14548904E-02 -0.10016789E-05 -0.91449575E-05
    6    2    0.28471019E-02 -0.70188511E-03  0.33956905E-02 -0.86559560E-03 -0.13369470E-04  0.13497897E-04
    1    3    0.75847790E-02 -0.51845017E-02  0.41115265E-02 -0.28163322E-02  0.67206595E-03 -0.28079223E-04
    2    3    0.14699468E-02  0.14831499E-02 -0.75339975E-03  0.12000550E-02 -0.12279261E-02  0.63683966E-03
    3    3    0.23119549E-02 -0.96950158E-04 -0.27035145E-02  0.83167981E-04  0.12293760E-04 -0.10980714E-04
    4    3    0.46916240E-02  0.14934236E-03  0.47144042E-02  0.16877379E-03 -0.73489892E-02 -0.38867523E-02
    5    3    0.71688431E-02  0.17092506E-02  0.13790483E-02  0.26653934E-02 -0.23227100E-02  0.20269141E-02
    6    3   -0.20733668E-02 -0.59612088E-03  0.49865825E-03 -0.26297602E-02 -0.32281504E-02  0.32811297E-02
    1    4    0.64041568E-03 -0.15010513E-02  0.37600707E-03 -0.86072489E-03  0.46374920E-04 -0.42007185E-04
    2    4   -0.96191967E-04 -0.30117550E-04 -0.67655113E-04  0.21352694E-04 -0.45519170E-04  0.47845346E-03
    3    4   -0.65974953E-02  0.21978894E-03  0.72066029E-02 -0.12470523E-03  0.48560879E-02 -0.27489405E-02
    4    4    0.82886400E-03 -0.16343545E-03 -0.39148902E-03 -0.11533987E-03  0.16137386E-06  0.15389100E-06
    5    4    0.72155601E-04 -0.33896345E-04 -0.19006403E-04 -0.38501130E-05  0.57557564E-03 -0.26806265E-04
    6    4    0.41683808E-04 -0.26648015E-04 -0.11055082E-05 -0.13093942E-04 -0.61196982E-03  0.23449253E-03
    1    5   -0.58098413E-04  0.33363752E-04 -0.37331189E-04  0.17816458E-04  0.18290573E-02  0.59018948E-04
    2    5   -0.23299708E-02 -0.18589973E-02 -0.23099973E-02  0.48026779E-03 -0.87720120E-05 -0.21097307E-04
    3    5   -0.43934231E-02  0.81022643E-04  0.24461924E-02  0.27903704E-02 -0.13393673E-02 -0.89747782E-03
    4    5   -0.47181303E-04 -0.17439903E-04 -0.52791511E-04  0.13592633E-04 -0.43903191E-03 -0.56651957E-03
    5    5    0.16953552E-02  0.79639172E-03  0.78081286E-04 -0.17997178E-04  0.29016023E-04 -0.16470907E-04
    6    5    0.29850064E-02  0.72333914E-03  0.22908464E-02  0.78360809E-03  0.12681209E-04 -0.23250638E-04
    1    6   -0.43022211E-04 -0.33465744E-05 -0.96747269E-05  0.40120971E-05  0.92194589E-03 -0.21507781E-05
    2    6    0.29297134E-02  0.15480260E-02  0.50770840E-02  0.14679364E-02 -0.13369494E-04  0.87651052E-05
    3    6    0.18093719E-02 -0.72227592E-03  0.35209458E-02 -0.95351952E-03  0.23768432E-02  0.23540161E-02
    4    6    0.44047514E-04  0.85844684E-04 -0.36683380E-04 -0.18796423E-05  0.19689178E-03  0.43978000E-03
    5    6    0.50421618E-02  0.26607534E-02  0.25413066E-02  0.15612423E-02  0.16364770E-04 -0.24134428E-04
    6    6   -0.14558666E-02 -0.11035167E-02 -0.14853411E-02  0.18571326E-03 -0.48893302E-05 -0.11181888E-04

